
                                 *****************
                                 * O   R   C   A *
                                 *****************

                                            #,                                       
                                            ###                                      
                                            ####                                     
                                            #####                                    
                                            ######                                   
                                           ########,                                 
                                     ,,################,,,,,                         
                               ,,#################################,,                 
                          ,,##########################################,,             
                       ,#########################################, ''#####,          
                    ,#############################################,,   '####,        
                  ,##################################################,,,,####,       
                ,###########''''           ''''###############################       
              ,#####''   ,,,,##########,,,,          '''####'''          '####       
            ,##' ,,,,###########################,,,                        '##       
           ' ,,###''''                  '''############,,,                           
         ,,##''                                '''############,,,,        ,,,,,,###''
      ,#''                                            '''#######################'''  
     '                                                          ''''####''''         
             ,#######,   #######,   ,#######,      ##                                
            ,#'     '#,  ##    ##  ,#'     '#,    #''#        ######   ,####,        
            ##       ##  ##   ,#'  ##            #'  '#       #        #'  '#        
            ##       ##  #######   ##           ,######,      #####,   #    #        
            '#,     ,#'  ##    ##  '#,     ,#' ,#      #,         ##   #,  ,#        
             '#######'   ##     ##  '#######'  #'      '#     #####' # '####'        



                  #######################################################
                  #                        -***-                        #
                  #          Department of theory and spectroscopy      #
                  #    Directorship and core code : Frank Neese         #
                  #        Max Planck Institute fuer Kohlenforschung    #
                  #                Kaiser Wilhelm Platz 1               #
                  #                 D-45470 Muelheim/Ruhr               #
                  #                      Germany                        #
                  #                                                     #
                  #                  All rights reserved                #
                  #                        -***-                        #
                  #######################################################


                         Program Version 5.0.3 -  RELEASE  -


 With contributions from (in alphabetic order):
   Daniel Aravena         : Magnetic Suceptibility
   Michael Atanasov       : Ab Initio Ligand Field Theory (pilot matlab implementation)
   Alexander A. Auer      : GIAO ZORA, VPT2 properties, NMR spectrum
   Ute Becker             : Parallelization
   Giovanni Bistoni       : ED, misc. LED, open-shell LED, HFLD
   Martin Brehm           : Molecular dynamics
   Dmytro Bykov           : SCF Hessian
   Vijay G. Chilkuri      : MRCI spin determinant printing, contributions to CSF-ICE
   Dipayan Datta          : RHF DLPNO-CCSD density
   Achintya Kumar Dutta   : EOM-CC, STEOM-CC
   Dmitry Ganyushin       : Spin-Orbit,Spin-Spin,Magnetic field MRCI
   Miquel Garcia          : C-PCM and meta-GGA Hessian, CC/C-PCM, Gaussian charge scheme
   Yang Guo               : DLPNO-NEVPT2, F12-NEVPT2, CIM, IAO-localization
   Andreas Hansen         : Spin unrestricted coupled pair/coupled cluster methods
   Benjamin Helmich-Paris : MC-RPA, TRAH-SCF, COSX integrals
   Lee Huntington         : MR-EOM, pCC
   Robert Izsak           : Overlap fitted RIJCOSX, COSX-SCS-MP3, EOM
   Marcus Kettner         : VPT2
   Christian Kollmar      : KDIIS, OOCD, Brueckner-CCSD(T), CCSD density, CASPT2, CASPT2-K
   Simone Kossmann        : Meta GGA functionals, TD-DFT gradient, OOMP2, MP2 Hessian
   Martin Krupicka        : Initial AUTO-CI
   Lucas Lang             : DCDCAS
   Marvin Lechner         : AUTO-CI (C++ implementation), FIC-MRCC
   Dagmar Lenk            : GEPOL surface, SMD
   Dimitrios Liakos       : Extrapolation schemes; Compound Job, initial MDCI parallelization
   Dimitrios Manganas     : Further ROCIS development; embedding schemes
   Dimitrios Pantazis     : SARC Basis sets
   Anastasios Papadopoulos: AUTO-CI, single reference methods and gradients
   Taras Petrenko         : DFT Hessian,TD-DFT gradient, ASA, ECA, R-Raman, ABS, FL, XAS/XES, NRVS
   Peter Pinski           : DLPNO-MP2, DLPNO-MP2 Gradient
   Christoph Reimann      : Effective Core Potentials
   Marius Retegan         : Local ZFS, SOC
   Christoph Riplinger    : Optimizer, TS searches, QM/MM, DLPNO-CCSD(T), (RO)-DLPNO pert. Triples
   Tobias Risthaus        : Range-separated hybrids, TD-DFT gradient, RPA, STAB
   Michael Roemelt        : Original ROCIS implementation
   Masaaki Saitow         : Open-shell DLPNO-CCSD energy and density
   Barbara Sandhoefer     : DKH picture change effects
   Avijit Sen             : IP-ROCIS
   Kantharuban Sivalingam : CASSCF convergence, NEVPT2, FIC-MRCI
   Bernardo de Souza      : ESD, SOC TD-DFT
   Georgi Stoychev        : AutoAux, RI-MP2 NMR, DLPNO-MP2 response
   Willem Van den Heuvel  : Paramagnetic NMR
   Boris Wezisla          : Elementary symmetry handling
   Frank Wennmohs         : Technical directorship


 We gratefully acknowledge several colleagues who have allowed us to
 interface, adapt or use parts of their codes:
   Stefan Grimme, W. Hujo, H. Kruse, P. Pracht,  : VdW corrections, initial TS optimization,
                  C. Bannwarth, S. Ehlert          DFT functionals, gCP, sTDA/sTD-DF
   Ed Valeev, F. Pavosevic, A. Kumar             : LibInt (2-el integral package), F12 methods
   Garnet Chan, S. Sharma, J. Yang, R. Olivares  : DMRG
   Ulf Ekstrom                                   : XCFun DFT Library
   Mihaly Kallay                                 : mrcc  (arbitrary order and MRCC methods)
   Jiri Pittner, Ondrej Demel                    : Mk-CCSD
   Frank Weinhold                                : gennbo (NPA and NBO analysis)
   Christopher J. Cramer and Donald G. Truhlar   : smd solvation model
   Lars Goerigk                                  : TD-DFT with DH, B97 family of functionals
   V. Asgeirsson, H. Jonsson                     : NEB implementation
   FAccTs GmbH                                   : IRC, NEB, NEB-TS, DLPNO-Multilevel, CI-OPT
                                                   MM, QMMM, 2- and 3-layer-ONIOM, Crystal-QMMM,
                                                   LR-CPCM, SF, NACMEs, symmetry and pop. for TD-DFT,
                                                   nearIR, NL-DFT gradient (VV10), updates on ESD,
                                                   ML-optimized integration grids
   S Lehtola, MJT Oliveira, MAL Marques          : LibXC Library
   Liviu Ungur et al                             : ANISO software


 Your calculation uses the libint2 library for the computation of 2-el integrals
 For citations please refer to: http://libint.valeyev.net

 Your ORCA version has been built with support for libXC version: 5.1.0
 For citations please refer to: https://tddft.org/programs/libxc/

 This ORCA versions uses:
   CBLAS   interface :  Fast vector & matrix operations
   LAPACKE interface :  Fast linear algebra routines
   SCALAPACK package :  Parallel linear algebra routines
   Shared memory     :  Shared parallel matrices
   BLAS/LAPACK       :  OpenBLAS 0.3.15  USE64BITINT DYNAMIC_ARCH NO_AFFINITY Haswell SINGLE_THREADED
        Core in use  :  Haswell
   Copyright (c) 2011-2014, The OpenBLAS Project


================================================================================

----- Orbital basis set information -----
Your calculation utilizes the basis: def2-SVP
   F. Weigend and R. Ahlrichs, Phys. Chem. Chem. Phys. 7, 3297 (2005).

================================================================================
                                        WARNINGS
                       Please study these warnings very carefully!
================================================================================

WARNING: Old DensityContainer found on disk!
         Will remove this file - 
         If you want to keep old densities, please start your calculation with a different basename. 


INFO   : the flag for use of the SHARK integral package has been found!

================================================================================
                                       INPUT FILE
================================================================================
NAME = water.inp
|  1> !HF DEF2-SVP LARGEPRINT
|  2> %SCF
|  3>    MAXITER 500
|  4> END
|  5> * xyz 0 1
|  6> O   0.0000   0.0000   0.0626
|  7> H  -0.7920   0.0000  -0.4973
|  8> H   0.7920   0.0000  -0.4973
|  9> *
| 10> 
| 11>                          ****END OF INPUT****
================================================================================

                       ****************************
                       * Single Point Calculation *
                       ****************************

---------------------------------
CARTESIAN COORDINATES (ANGSTROEM)
---------------------------------
  O      0.000000    0.000000    0.062600
  H     -0.792000    0.000000   -0.497300
  H      0.792000    0.000000   -0.497300

----------------------------
CARTESIAN COORDINATES (A.U.)
----------------------------
  NO LB      ZA    FRAG     MASS         X           Y           Z
   0 O     8.0000    0    15.999    0.000000    0.000000    0.118297
   1 H     1.0000    0     1.008   -1.496663    0.000000   -0.939761
   2 H     1.0000    0     1.008    1.496663    0.000000   -0.939761

--------------------------------
INTERNAL COORDINATES (ANGSTROEM)
--------------------------------
 O      0   0   0     0.000000000000     0.00000000     0.00000000
 H      1   0   0     0.969923713495     0.00000000     0.00000000
 H      1   2   0     0.969923713495   109.48362320     0.00000000

---------------------------
INTERNAL COORDINATES (A.U.)
---------------------------
 O      0   0   0     0.000000000000     0.00000000     0.00000000
 H      1   0   0     1.832890189302     0.00000000     0.00000000
 H      1   2   0     1.832890189302   109.48362320     0.00000000

---------------------
BASIS SET INFORMATION
---------------------
There are 2 groups of distinct atoms

 Group   1 Type O   : 7s4p1d contracted to 3s2p1d pattern {511/31/1}
 Group   2 Type H   : 4s1p contracted to 2s1p pattern {31/1}

Atom   0O    basis set group =>   1
Atom   1H    basis set group =>   2
Atom   2H    basis set group =>   2

-------------------------
BASIS SET IN INPUT FORMAT
-------------------------

 # Basis set for element : H 
 NewGTO H 
 S 3 
   1      13.0107010000      0.0334854848
   2       1.9622572000      0.2347218709
   3       0.4445379600      0.8137702853
 S 1 
   1       0.1219496200      1.0000000000
 P 1 
   1       0.8000000000      1.0000000000
  end;

 # Basis set for element : O 
 NewGTO O 
 S 5 
   1    2266.1767785000     -0.0053893504
   2     340.8701019100     -0.0402347214
   3      77.3631351670     -0.1800818421
   4      21.4796449400     -0.4682885766
   5       6.6589433124     -0.4469261716
 S 1 
   1       0.8097597567      1.0000000000
 S 1 
   1       0.2553077223      1.0000000000
 P 3 
   1      17.7215043170      0.0626302488
   2       3.8635505440      0.3333113849
   3       1.0480920883      0.7414863830
 P 1 
   1       0.2764154441      1.0000000000
 D 1 
   1       1.2000000000      1.0000000000
  end;


Checking for AutoStart:
The File: water.gbw exists
Trying to determine its content:
     ... Fine, the file contains calculation information
     ... Fine, the calculation information was read
     ... Fine, the file contains a basis set
     ... Fine, the basis set was read
     ... Fine, the file contains a geometry
     ... Fine, the geometry was read
     ... Fine, the file contains a set of orbitals
     ... Fine, the orbitals can be read
     => possible old guess file was deleted
     => GBW file was renamed to GES file
     => GES file is set as startup file
     => Guess is set to MORead
     ... now leaving AutoStart

------------------------------------------------------------------------------
                           ORCA GTO INTEGRAL CALCULATION
------------------------------------------------------------------------------
------------------------------------------------------------------------------
                   ___                                                        
                  /   \      - P O W E R E D   B Y -                         
                 /     \                                                     
                 |  |  |   _    _      __       _____    __    __             
                 |  |  |  | |  | |    /  \     |  _  \  |  |  /  |          
                  \  \/   | |  | |   /    \    | | | |  |  | /  /          
                 / \  \   | |__| |  /  /\  \   | |_| |  |  |/  /          
                |  |  |   |  __  | /  /__\  \  |    /   |      \           
                |  |  |   | |  | | |   __   |  |    \   |  |\   \          
                \     /   | |  | | |  |  |  |  | |\  \  |  | \   \       
                 \___/    |_|  |_| |__|  |__|  |_| \__\ |__|  \__/        
                                                                              
                      - O R C A' S   B I G   F R I E N D -                    
                                      &                                       
                       - I N T E G R A L  F E E D E R -                       
                                                                              
 v1 FN, 2020, v2 2021                                                         
------------------------------------------------------------------------------


Reading SHARK input file water.SHARKINP.tmp ... SHARK General Contraction Test:  Segmented basis detected
   -> Pre-screening matrix *NOT* found on disk - recalculating with NShells=12
   -> Leaving CheckPreScreeningMatrix
ok
----------------------
SHARK INTEGRAL PACKAGE
----------------------

Number of atoms                             ...      3
Number of basis functions                   ...     24
Number of shells                            ...     12
Maximum angular momentum                    ...      2
Integral batch strategy                     ... SHARK/LIBINT Hybrid
RI-J (if used) integral strategy            ... SPLIT-RIJ (Revised 2003 algorithm where possible)
Printlevel                                  ...      2
Contraction scheme used                     ... SEGMENTED contraction
Coulomb Range Separation                    ... NOT USED
Exchange Range Separation                   ... NOT USED
Finite Nucleus Model                        ... NOT USED
Auxiliary Coulomb fitting basis             ... NOT available
Auxiliary J/K fitting basis                 ... NOT available
Auxiliary Correlation fitting basis         ... NOT available
Auxiliary 'external' fitting basis          ... NOT available
Integral threshold                          ...     1.000000e-10
Primitive cut-off                           ...     1.000000e-11
Primitive pair pre-selection threshold      ...     1.000000e-11

Calculating pre-screening integrals         ... done (  0.0 sec) Dimension = 12
Organizing shell pair data                  ... done (  0.0 sec)
Shell pair information
Total number of shell pairs                 ...        78
Shell pairs after pre-screening             ...        78
Total number of primitive shell pairs       ...       272
Primitive shell pairs kept                  ...       263
          la=0 lb=0:     28 shell pairs
          la=1 lb=0:     28 shell pairs
          la=1 lb=1:     10 shell pairs
          la=2 lb=0:      7 shell pairs
          la=2 lb=1:      4 shell pairs
          la=2 lb=2:      1 shell pairs

Calculating one electron integrals          ... done (  0.0 sec)
Calculating Nuclear repulsion               ... done (  0.0 sec) ENN=      9.063459269773 Eh

SHARK setup successfully completed in   0.1 seconds

Maximum memory used throughout the entire GTOINT-calculation: 6.7 MB
-------------------------------------------------------------------------------
                                 ORCA SCF
-------------------------------------------------------------------------------

------------
SCF SETTINGS
------------
Hamiltonian:
 Ab initio Hamiltonian  Method          .... Hartree-Fock(GTOs)


General Settings:
 Integral files         IntName         .... water
 Hartree-Fock type      HFTyp           .... RHF
 Total Charge           Charge          ....    0
 Multiplicity           Mult            ....    1
 Number of Electrons    NEL             ....   10
 Basis Dimension        Dim             ....   24
 Nuclear Repulsion      ENuc            ....      9.0634592698 Eh

Convergence Acceleration:
 DIIS                   CNVDIIS         .... on
   Start iteration      DIISMaxIt       ....    12
   Startup error        DIISStart       ....  0.200000
   # of expansion vecs  DIISMaxEq       ....     5
   Bias factor          DIISBfac        ....   1.050
   Max. coefficient     DIISMaxC        ....  10.000
 Trust-Rad. Augm. Hess. CNVTRAH         .... auto
   Auto Start mean grad. ratio tolernc. ....  1.125000
   Auto Start start iteration           ....     1
   Auto Start num. interpolation iter.  ....    10
   Max. Number of Micro iterations      ....    16
   Max. Number of Macro iterations      .... Maxiter - #DIIS iter
   Number of Davidson start vectors     ....     2
   Converg. threshold I  (grad. norm)   ....   5.000e-05
   Converg. threshold II (energy diff.) ....   1.000e-06
   Grad. Scal. Fac. for Micro threshold ....   0.100
   Minimum threshold for Micro iter.    ....   0.010
   NR start threshold (gradient norm)   ....   0.001
   Initial trust radius                 ....   0.400
   Minimum AH scaling param. (alpha)    ....   1.000
   Maximum AH scaling param. (alpha)    .... 1000.000
   Orbital update algorithm             .... Taylor
   White noise on init. David. guess    .... on
   Maximum white noise                  ....   0.010
   Quad. conv. algorithm                .... NR
 SOSCF                  CNVSOSCF        .... on
   Start iteration      SOSCFMaxIt      ....   150
   Startup grad/error   SOSCFStart      ....  0.003300
 Level Shifting         CNVShift        .... on
   Level shift para.    LevelShift      ....    0.2500
   Turn off err/grad.   ShiftErr        ....    0.0010
 Zerner damping         CNVZerner       .... off
 Static damping         CNVDamp         .... on
   Fraction old density DampFac         ....    0.7000
   Max. Damping (<1)    DampMax         ....    0.9800
   Min. Damping (>=0)   DampMin         ....    0.0000
   Turn off err/grad.   DampErr         ....    0.1000
 Fernandez-Rico         CNVRico         .... off

SCF Procedure:
 Maximum # iterations   MaxIter         ....   500
 SCF integral mode      SCFMode         .... Direct
   Integral package                     .... SHARK and LIBINT hybrid scheme
 Reset frequency        DirectResetFreq ....    20
 Integral Threshold     Thresh          ....  1.000e-10 Eh
 Primitive CutOff       TCut            ....  1.000e-11 Eh

Convergence Tolerance:
 Convergence Check Mode ConvCheckMode   .... Total+1el-Energy
 Convergence forced     ConvForced      .... 0
 Energy Change          TolE            ....  1.000e-06 Eh
 1-El. energy change                    ....  1.000e-03 Eh
 Orbital Gradient       TolG            ....  5.000e-05
 Orbital Rotation angle TolX            ....  5.000e-05
 DIIS Error             TolErr          ....  1.000e-06


Diagonalization of the overlap matrix:
Smallest eigenvalue                        ... 3.975e-02
Time for diagonalization                   ...    0.000 sec
Threshold for overlap eigenvalues          ... 1.000e-08
Number of eigenvalues below threshold      ... 0
Time for construction of square roots      ...    0.000 sec
Total time needed                          ...    0.000 sec

SHARK General Contraction Test:  Segmented basis detected
   -> Pre-screening matrix found on disk - Trying to read with NShells=12
   -> Passing Pre-screening matrix on to SHARK ...ok
   -> Leaving CheckPreScreeningMatrix
----------------------
SHARK INTEGRAL PACKAGE
----------------------

Number of atoms                             ...      3
Number of basis functions                   ...     24
Number of shells                            ...     12
Maximum angular momentum                    ...      2
Integral batch strategy                     ... SHARK/LIBINT Hybrid
RI-J (if used) integral strategy            ... SPLIT-RIJ (Revised 2003 algorithm where possible)
Printlevel                                  ...      2
Contraction scheme used                     ... SEGMENTED contraction
Coulomb Range Separation                    ... NOT USED
Exchange Range Separation                   ... NOT USED
Finite Nucleus Model                        ... NOT USED
Auxiliary Coulomb fitting basis             ... NOT available
Auxiliary J/K fitting basis                 ... NOT available
Auxiliary Correlation fitting basis         ... NOT available
Auxiliary 'external' fitting basis          ... NOT available
Integral threshold                          ...     1.000000e-10
Primitive cut-off                           ...     1.000000e-11
Primitive pair pre-selection threshold      ...     1.000000e-11

---------------------
INITIAL GUESS: MOREAD
---------------------
Guess MOs are being read from file: water.ges
Input Geometry matches current geometry (good)
Input basis set matches current basis set (good)
MOs were renormalized
MOs were reorthogonalized (Cholesky)
                      ------------------
                      INITIAL GUESS DONE (   0.0 sec)
                      ------------------
----------------------
INITIAL GUESS ORBITALS
----------------------
                      0         1         2         3         4         5   
                 -20.54485  -1.30836  -0.70560  -0.55595  -0.49514   0.17499
                   2.00000   2.00000   2.00000   2.00000   2.00000   0.00000
                  --------  --------  --------  --------  --------  --------
  0O   1s         0.990350  0.279554  0.000000 -0.091206 -0.000000  0.089179
  0O   2s        -0.033188  0.553001 -0.000000 -0.190164 -0.000000  0.092748
  0O   3s         0.010544  0.301234  0.000000 -0.313328 -0.000000  1.099852
  0O   1pz        0.002606 -0.078242  0.000000 -0.552513 -0.000000 -0.185875
  0O   1px        0.000000  0.000000 -0.486922 -0.000000 -0.000000 -0.000000
  0O   1py       -0.000000 -0.000000  0.000000 -0.000000  0.632189  0.000000
  0O   2pz       -0.000254  0.001394 -0.000000 -0.376911 -0.000000 -0.358470
  0O   2px        0.000000  0.000000 -0.221813 -0.000000 -0.000000 -0.000000
  0O   2py       -0.000000 -0.000000  0.000000 -0.000000  0.498664  0.000000
  0O   1dz2       0.000013  0.000992  0.000000  0.017313 -0.000000  0.006553
  0O   1dxz       0.000000 -0.000000  0.024853  0.000000 -0.000000  0.000000
  0O   1dyz       0.000000 -0.000000  0.000000  0.000000 -0.017717 -0.000000
  0O   1dx2y2    -0.000898  0.004273  0.000000  0.004052 -0.000000  0.009402
  0O   1dxy      -0.000000  0.000000 -0.000000  0.000000  0.000000 -0.000000
  1H   1s         0.001653  0.186550  0.327323  0.194581  0.000000 -0.074476
  1H   2s        -0.001801  0.006389  0.083045  0.054680  0.000000 -0.897141
  1H   1pz        0.001409  0.015206  0.029201 -0.008419 -0.000000 -0.011173
  1H   1px        0.001950  0.032185  0.023897  0.028947 -0.000000 -0.015090
  1H   1py       -0.000000  0.000000  0.000000  0.000000  0.028265  0.000000
  2H   1s         0.001653  0.186550 -0.327323  0.194581  0.000000 -0.074476
  2H   2s        -0.001801  0.006389 -0.083045  0.054680  0.000000 -0.897141
  2H   1pz        0.001409  0.015206 -0.029201 -0.008419 -0.000000 -0.011173
  2H   1px       -0.001950 -0.032185  0.023897 -0.028947  0.000000  0.015090
  2H   1py        0.000000  0.000000 -0.000000  0.000000  0.028265  0.000000
                      6         7         8         9        10        11   
                   0.25303   0.80460   0.83396   1.18531   1.20341   1.26597
                   0.00000   0.00000   0.00000   0.00000   0.00000   0.00000
                  --------  --------  --------  --------  --------  --------
  0O   1s        -0.000000 -0.000000 -0.109539 -0.108754  0.000000  0.000000
  0O   2s        -0.000000 -0.000000 -0.369619 -0.451213  0.000000  0.000000
  0O   3s        -0.000000 -0.000000  0.297533 -0.115699 -0.000000 -0.000000
  0O   1pz        0.000000  0.000000  0.290235 -0.824347  0.000000  0.000000
  0O   1px       -0.283807 -0.291368  0.000000 -0.000000  0.000000 -0.753751
  0O   1py       -0.000000 -0.000000  0.000000 -0.000000 -0.968094 -0.000000
  0O   2pz        0.000000  0.000000  0.111792  1.179146 -0.000000  0.000000
  0O   2px       -0.663563 -0.496187  0.000000  0.000000 -0.000000  1.744534
  0O   2py       -0.000000 -0.000000 -0.000000  0.000000  1.027288  0.000000
  0O   1dz2      -0.000000 -0.000000 -0.011017 -0.005561  0.000000 -0.000000
  0O   1dxz       0.018459 -0.107660  0.000000 -0.000000  0.000000 -0.037340
  0O   1dyz       0.000000  0.000000  0.000000 -0.000000  0.003593 -0.000000
  0O   1dx2y2     0.000000  0.000000  0.104432  0.000419  0.000000  0.000000
  0O   1dxy       0.000000 -0.000000 -0.000000  0.000000  0.000000 -0.000000
  1H   1s        -0.024424 -0.969463  0.868410  0.350648 -0.000000  0.367289
  1H   2s        -1.386524  0.663030 -0.562647  0.067295 -0.000000  0.764035
  1H   1pz       -0.011082  0.133234 -0.028733  0.150792 -0.000000  0.135841
  1H   1px       -0.015154  0.054693 -0.224532  0.085046 -0.000000  0.287735
  1H   1py        0.000000 -0.000000 -0.000000 -0.000000  0.007769 -0.000000
  2H   1s         0.024424  0.969463  0.868410  0.350648 -0.000000 -0.367289
  2H   2s         1.386524 -0.663030 -0.562647  0.067295 -0.000000 -0.764035
  2H   1pz        0.011082 -0.133234 -0.028733  0.150792 -0.000000 -0.135841
  2H   1px       -0.015154  0.054693  0.224532 -0.085046  0.000000  0.287735
  2H   1py        0.000000  0.000000  0.000000  0.000000  0.007769  0.000000
                     12        13        14        15        16        17   
                   1.33204   1.57983   1.72809   1.83201   2.01422   2.54904
                   0.00000   0.00000   0.00000   0.00000   0.00000   0.00000
                  --------  --------  --------  --------  --------  --------
  0O   1s         0.260736 -0.000000  0.082806 -0.000000 -0.000000 -0.000000
  0O   2s         1.611717 -0.000000  0.666745 -0.000000 -0.000000 -0.000000
  0O   3s        -2.830308  0.000000 -1.491504  0.000000  0.000000 -0.000000
  0O   1pz       -0.054797  0.000000 -0.103674  0.000000  0.000000  0.000000
  0O   1px        0.000000  0.000000  0.000000 -0.000000 -0.099336  0.798103
  0O   1py        0.000000  0.000000  0.000000  0.012261  0.000000  0.000000
  0O   2pz        0.539277 -0.000000  1.084323 -0.000000 -0.000000  0.000000
  0O   2px       -0.000000 -0.000000 -0.000000  0.000000  0.899273  0.174644
  0O   2py       -0.000000 -0.000000  0.000000  0.566748  0.000000 -0.000000
  0O   1dz2      -0.035825 -0.000000  0.198250 -0.000000  0.000000  0.000000
  0O   1dxz       0.000000  0.000000 -0.000000 -0.000000  0.015382  0.169341
  0O   1dyz      -0.000000 -0.000000  0.000000  0.197614  0.000000  0.000000
  0O   1dx2y2     0.031263  0.000000  0.026679 -0.000000 -0.000000  0.000000
  0O   1dxy       0.000000 -0.165008 -0.000000 -0.000000 -0.000000  0.000000
  1H   1s         0.482279 -0.000000  0.658254 -0.000000  0.393550  0.247389
  1H   2s         0.524225  0.000000  0.153859 -0.000000  0.089351  0.291067
  1H   1pz        0.297540  0.000000 -0.508006  0.000000  0.647407  0.557302
  1H   1px        0.036916 -0.000000  0.406787 -0.000000 -0.455970  0.648998
  1H   1py        0.000000  0.666383 -0.000000 -0.744630 -0.000000  0.000000
  2H   1s         0.482279 -0.000000  0.658254 -0.000000 -0.393550 -0.247389
  2H   2s         0.524225  0.000000  0.153859 -0.000000 -0.089351 -0.291067
  2H   1pz        0.297540  0.000000 -0.508006  0.000000 -0.647407 -0.557302
  2H   1px       -0.036916  0.000000 -0.406787  0.000000 -0.455970  0.648998
  2H   1py        0.000000 -0.666383 -0.000000 -0.744630  0.000000 -0.000000
                     18        19        20        21        22        23   
                   2.57078   3.28794   3.39244   3.51585   3.93529   4.18754
                   0.00000   0.00000   0.00000   0.00000   0.00000   0.00000
                  --------  --------  --------  --------  --------  --------
  0O   1s        -0.153879  0.000000 -0.000000  0.011933 -0.078568  0.000000
  0O   2s        -0.746728  0.000000  0.000000 -0.045553 -0.170954  0.000000
  0O   3s        -0.666095  0.000000 -0.000000  0.672476 -1.763178  0.000000
  0O   1pz        0.575997 -0.000000  0.000000 -0.062810  0.363573 -0.000000
  0O   1px       -0.000000 -0.000000 -0.000000 -0.000000  0.000000  0.472445
  0O   1py        0.000000  0.014286 -0.000000 -0.000000 -0.000000 -0.000000
  0O   2pz        0.211826 -0.000000  0.000000 -0.583081  0.749783 -0.000000
  0O   2px       -0.000000 -0.000000  0.000000 -0.000000  0.000000  1.115466
  0O   2py        0.000000 -0.278609 -0.000000  0.000000 -0.000000 -0.000000
  0O   1dz2       0.105862  0.000000 -0.000000  1.058225  0.078080  0.000000
  0O   1dxz      -0.000000 -0.000000 -0.000000  0.000000 -0.000000 -1.316680
  0O   1dyz       0.000000  1.023508  0.000000 -0.000000 -0.000000  0.000000
  0O   1dx2y2     0.271971 -0.000000 -0.000000  0.014186 -1.177142  0.000000
  0O   1dxy       0.000000 -0.000000  1.057490  0.000000 -0.000000 -0.000000
  1H   1s         0.418937 -0.000000  0.000000 -0.384760  1.072537  1.031706
  1H   2s         0.186373 -0.000000  0.000000 -0.083189  0.211988  0.249295
  1H   1pz        0.438829  0.000000 -0.000000  0.276139  0.502143  0.447748
  1H   1px        0.750760 -0.000000  0.000000 -0.428309  0.596817  0.625158
  1H   1py       -0.000000  0.386016  0.380849 -0.000000 -0.000000 -0.000000
  2H   1s         0.418937 -0.000000  0.000000 -0.384760  1.072537 -1.031706
  2H   2s         0.186373 -0.000000 -0.000000 -0.083189  0.211988 -0.249295
  2H   1pz        0.438829  0.000000 -0.000000  0.276139  0.502143 -0.447748
  2H   1px       -0.750760  0.000000 -0.000000  0.428309 -0.596817  0.625158
  2H   1py        0.000000  0.386016 -0.380849 -0.000000  0.000000  0.000000
--------------
SCF ITERATIONS
--------------
               ***  Starting incremental Fock matrix formation  ***
===> SHARK/Fock/General/Sym: HFTyp=1 DoJ=1 DoX=1 facj= 2.000 facx=-0.500 NFock=1 NumOp=1 NMat=1 RangeSep=0 GeneralContraction=0 PGCOpt=-1
    -> L=0 0 0 0:     0.000 sec done=       406 (=100.0%) skipped=         0 
    -> L=1 0 0 0:     0.000 sec done=       784 (=100.0%) skipped=         0 
    -> L=1 0 1 0:     0.000 sec done=       406 (=100.0%) skipped=         0 
    -> L=1 1 0 0:     0.000 sec done=       280 (=100.0%) skipped=         0 
    -> L=1 1 1 0:     0.000 sec done=       280 (=100.0%) skipped=         0 
    -> L=1 1 1 1:     0.000 sec done=        55 (=100.0%) skipped=         0 
    -> L=2 0 0 0:     0.000 sec done=       196 (=100.0%) skipped=         0 
    -> RHF LowL loop time =     0.002 sec
    -> L=2 0 1 0:     0.000 sec done=       196 (=100.0%) skipped=         0 
    -> L=2 0 1 1:     0.000 sec done=        70 (=100.0%) skipped=         0 
    -> L=2 0 2 0:     0.000 sec done=        28 (=100.0%) skipped=         0 
    -> L=2 1 0 0:     0.000 sec done=       112 (=100.0%) skipped=         0 
    -> L=2 1 1 0:     0.000 sec done=       112 (=100.0%) skipped=         0 
    -> L=2 1 2 0:     0.000 sec done=        28 (=100.0%) skipped=         0 
    -> L=2 2 0 0:     0.000 sec done=        28 (=100.0%) skipped=         0 
    ->Total SHARK integral loop time =    0.002 sec
    -> L=0 1 2 2:     0.000 sec done=        28 (=100.0%) skipped=         0 
    -> L=0 2 2 2:     0.000 sec done=         7 (=100.0%) skipped=         0 
    -> L=1 1 1 2:     0.000 sec done=        40 (=100.0%) skipped=         0 
    -> L=1 1 2 2:     0.000 sec done=        10 (=100.0%) skipped=         0 
    -> L=1 2 1 2:     0.000 sec done=        10 (=100.0%) skipped=         0 
    -> L=1 2 2 2:     0.000 sec done=         4 (=100.0%) skipped=         0 
    -> L=2 2 2 2:     0.000 sec done=         1 (=100.0%) skipped=         0 
    ->Total LIBINT loop time =    0.001 sec
                      *** Initiating the SOSCF procedure ***
                      *** Re-Reading the Fockian *** 
                      *** Removing any level shift *** 

                         ----------------------------
                         !        ITERATION     0   !
                         ----------------------------
   Total Energy        :     -75.959340313454 Eh
   Energy Change       :     -75.959340313454 Eh
   MAX-DP              :       0.000001482712
   RMS-DP              :       0.000000113463
   Orbital gradient    :       0.000000976810
   Orbital Rotation    :       0.000000976810
   Actual Damping      :       0.0000

               *** Restarting incremental Fock matrix formation ***
===> SHARK/Fock/General/Sym: HFTyp=1 DoJ=1 DoX=1 facj= 2.000 facx=-0.500 NFock=1 NumOp=1 NMat=1 RangeSep=0 GeneralContraction=0 PGCOpt=-1
    -> L=0 0 0 0:     0.000 sec done=       406 (=100.0%) skipped=         0 
    -> L=1 0 0 0:     0.000 sec done=       784 (=100.0%) skipped=         0 
    -> L=1 0 1 0:     0.000 sec done=       406 (=100.0%) skipped=         0 
    -> L=1 1 0 0:     0.000 sec done=       280 (=100.0%) skipped=         0 
    -> L=1 1 1 0:     0.000 sec done=       280 (=100.0%) skipped=         0 
    -> L=1 1 1 1:     0.000 sec done=        55 (=100.0%) skipped=         0 
    -> L=2 0 0 0:     0.000 sec done=       196 (=100.0%) skipped=         0 
    -> RHF LowL loop time =     0.002 sec
    -> L=2 0 1 0:     0.000 sec done=       196 (=100.0%) skipped=         0 
    -> L=2 0 1 1:     0.000 sec done=        70 (=100.0%) skipped=         0 
    -> L=2 0 2 0:     0.000 sec done=        28 (=100.0%) skipped=         0 
    -> L=2 1 0 0:     0.000 sec done=       112 (=100.0%) skipped=         0 
    -> L=2 1 1 0:     0.000 sec done=       112 (=100.0%) skipped=         0 
    -> L=2 1 2 0:     0.000 sec done=        28 (=100.0%) skipped=         0 
    -> L=2 2 0 0:     0.000 sec done=        28 (=100.0%) skipped=         0 
    ->Total SHARK integral loop time =    0.001 sec
    -> L=0 1 2 2:     0.000 sec done=        28 (=100.0%) skipped=         0 
    -> L=0 2 2 2:     0.000 sec done=         7 (=100.0%) skipped=         0 
    -> L=1 1 1 2:     0.000 sec done=        40 (=100.0%) skipped=         0 
    -> L=1 1 2 2:     0.000 sec done=        10 (=100.0%) skipped=         0 
    -> L=1 2 1 2:     0.000 sec done=        10 (=100.0%) skipped=         0 
    -> L=1 2 2 2:     0.000 sec done=         4 (=100.0%) skipped=         0 
    -> L=2 2 2 2:     0.000 sec done=         1 (=100.0%) skipped=         0 
    ->Total LIBINT loop time =    0.001 sec
                 **** Energy Check signals convergence ****
              ***Rediagonalizing the Fockian in SOSCF/NRSCF***

               *****************************************************
               *                     SUCCESS                       *
               *           SCF CONVERGED AFTER   1 CYCLES          *
               *****************************************************


----------------
TOTAL SCF ENERGY
----------------

Total Energy       :          -75.95934031 Eh           -2066.95873 eV

Components:
Nuclear Repulsion  :            9.06345927 Eh             246.62927 eV
Electronic Energy  :          -85.02279958 Eh           -2313.58800 eV
One Electron Energy:         -122.82581139 Eh           -3342.26025 eV
Two Electron Energy:           37.80301181 Eh            1028.67225 eV

Virial components:
Potential Energy   :         -151.67621406 Eh           -4127.31961 eV
Kinetic Energy     :           75.71687374 Eh            2060.36088 eV
Virial Ratio       :            2.00320228


---------------
SCF CONVERGENCE
---------------

  Last Energy change         ...   -6.5654e-12  Tolerance :   1.0000e-06
  Last MAX-Density change    ...    1.0448e-06  Tolerance :   1.0000e-05
  Last RMS-Density change    ...    8.8901e-08  Tolerance :   1.0000e-06
  Last Orbital Gradient      ...    5.2224e-07  Tolerance :   5.0000e-05
  Last Orbital Rotation      ...    6.7062e-07  Tolerance :   5.0000e-05

             **** THE GBW FILE WAS UPDATED (water.gbw) ****
             **** DENSITY water.scfp WAS UPDATED ****
             **** ENERGY FILE WAS UPDATED (water.en.tmp) ****
             **** THE GBW FILE WAS UPDATED (water.gbw) ****
             **** DENSITY water.scfp WAS UPDATED ****
----------------
ORBITAL ENERGIES
----------------

  NO   OCC          E(Eh)            E(eV) 
   0   2.0000     -20.544852      -559.0539 
   1   2.0000      -1.308357       -35.6022 
   2   2.0000      -0.705596       -19.2002 
   3   2.0000      -0.555949       -15.1281 
   4   2.0000      -0.495137       -13.4734 
   5   0.0000       0.174994         4.7618 
   6   0.0000       0.253030         6.8853 
   7   0.0000       0.804603        21.8944 
   8   0.0000       0.833965        22.6933 
   9   0.0000       1.185306        32.2538 
  10   0.0000       1.203410        32.7465 
  11   0.0000       1.265971        34.4488 
  12   0.0000       1.332040        36.2467 
  13   0.0000       1.579827        42.9893 
  14   0.0000       1.728087        47.0236 
  15   0.0000       1.832010        49.8515 
  16   0.0000       2.014217        54.8096 
  17   0.0000       2.549043        69.3630 
  18   0.0000       2.570780        69.9545 
  19   0.0000       3.287944        89.4695 
  20   0.0000       3.392435        92.3128 
  21   0.0000       3.515846        95.6710 
  22   0.0000       3.935287       107.0846 
  23   0.0000       4.187538       113.9487 
------------------
MOLECULAR ORBITALS
------------------
                      0         1         2         3         4         5   
                 -20.54485  -1.30836  -0.70560  -0.55595  -0.49514   0.17499
                   2.00000   2.00000   2.00000   2.00000   2.00000   0.00000
                  --------  --------  --------  --------  --------  --------
  0O   1s         0.990350 -0.279554  0.000000  0.091206 -0.000000  0.089179
  0O   2s        -0.033188 -0.553001  0.000000  0.190164 -0.000000  0.092748
  0O   3s         0.010544 -0.301234  0.000000  0.313329 -0.000000  1.099852
  0O   1pz        0.002606  0.078242  0.000000  0.552512 -0.000000 -0.185876
  0O   1px        0.000000  0.000000  0.486923 -0.000000 -0.000000  0.000000
  0O   1py       -0.000000  0.000000 -0.000000  0.000000  0.632189  0.000000
  0O   2pz       -0.000254 -0.001394 -0.000000  0.376911 -0.000000 -0.358470
  0O   2px        0.000000  0.000000  0.221814 -0.000000  0.000000  0.000000
  0O   2py        0.000000  0.000000 -0.000000  0.000000  0.498664  0.000000
  0O   1dz2       0.000013 -0.000992 -0.000000 -0.017313  0.000000  0.006553
  0O   1dxz      -0.000000 -0.000000 -0.024853  0.000000 -0.000000 -0.000000
  0O   1dyz      -0.000000  0.000000 -0.000000 -0.000000 -0.017717 -0.000000
  0O   1dx2y2    -0.000898 -0.004273  0.000000 -0.004052 -0.000000  0.009402
  0O   1dxy       0.000000  0.000000  0.000000 -0.000000 -0.000000 -0.000000
  1H   1s         0.001653 -0.186550 -0.327323 -0.194582  0.000000 -0.074475
  1H   2s        -0.001801 -0.006389 -0.083044 -0.054681  0.000000 -0.897141
  1H   1pz        0.001409 -0.015206 -0.029201  0.008419  0.000000 -0.011173
  1H   1px        0.001950 -0.032185 -0.023897 -0.028947 -0.000000 -0.015090
  1H   1py        0.000000 -0.000000 -0.000000  0.000000  0.028265  0.000000
  2H   1s         0.001653 -0.186550  0.327323 -0.194582  0.000000 -0.074475
  2H   2s        -0.001801 -0.006389  0.083044 -0.054681  0.000000 -0.897141
  2H   1pz        0.001409 -0.015206  0.029201  0.008419 -0.000000 -0.011173
  2H   1px       -0.001950  0.032185 -0.023897  0.028947 -0.000000  0.015090
  2H   1py       -0.000000 -0.000000  0.000000  0.000000  0.028265  0.000000
                      6         7         8         9        10        11   
                   0.25303   0.80460   0.83396   1.18531   1.20341   1.26597
                   0.00000   0.00000   0.00000   0.00000   0.00000   0.00000
                  --------  --------  --------  --------  --------  --------
  0O   1s        -0.000000  0.000000 -0.109539  0.108754  0.000000 -0.000000
  0O   2s         0.000000  0.000000 -0.369619  0.451213  0.000000 -0.000000
  0O   3s        -0.000000 -0.000000  0.297533  0.115699 -0.000000  0.000000
  0O   1pz        0.000000 -0.000000  0.290234  0.824347  0.000000  0.000000
  0O   1px        0.283807 -0.291368 -0.000000  0.000000  0.000000 -0.753751
  0O   1py        0.000000 -0.000000  0.000000  0.000000 -0.968094 -0.000000
  0O   2pz        0.000000  0.000000  0.111792 -1.179145 -0.000000 -0.000000
  0O   2px        0.663563 -0.496186 -0.000000 -0.000000 -0.000000  1.744534
  0O   2py        0.000000 -0.000000 -0.000000 -0.000000  1.027288  0.000000
  0O   1dz2      -0.000000 -0.000000 -0.011017  0.005561  0.000000  0.000000
  0O   1dxz      -0.018459 -0.107660 -0.000000  0.000000  0.000000 -0.037339
  0O   1dyz       0.000000 -0.000000  0.000000  0.000000  0.003593  0.000000
  0O   1dx2y2    -0.000000 -0.000000  0.104432 -0.000419  0.000000 -0.000000
  0O   1dxy       0.000000 -0.000000  0.000000  0.000000  0.000000  0.000000
  1H   1s         0.024425 -0.969463  0.868410 -0.350648 -0.000000  0.367289
  1H   2s         1.386524  0.663031 -0.562646 -0.067295 -0.000000  0.764035
  1H   1pz        0.011082  0.133235 -0.028733 -0.150792 -0.000000  0.135840
  1H   1px        0.015154  0.054693 -0.224532 -0.085046 -0.000000  0.287735
  1H   1py        0.000000 -0.000000 -0.000000  0.000000  0.007769  0.000000
  2H   1s        -0.024425  0.969463  0.868410 -0.350648 -0.000000 -0.367289
  2H   2s        -1.386524 -0.663031 -0.562646 -0.067295 -0.000000 -0.764035
  2H   1pz       -0.011082 -0.133235 -0.028733 -0.150792 -0.000000 -0.135840
  2H   1px        0.015154  0.054693  0.224532  0.085046  0.000000  0.287735
  2H   1py       -0.000000  0.000000  0.000000 -0.000000  0.007769 -0.000000
                     12        13        14        15        16        17   
                   1.33204   1.57983   1.72809   1.83201   2.01422   2.54904
                   0.00000   0.00000   0.00000   0.00000   0.00000   0.00000
                  --------  --------  --------  --------  --------  --------
  0O   1s         0.260736 -0.000000 -0.082806  0.000000  0.000000  0.000000
  0O   2s         1.611717 -0.000000 -0.666746  0.000000  0.000000  0.000000
  0O   3s        -2.830308  0.000000  1.491504 -0.000000 -0.000000  0.000000
  0O   1pz       -0.054797  0.000000  0.103674  0.000000 -0.000000 -0.000000
  0O   1px       -0.000000  0.000000  0.000000 -0.000000 -0.099336  0.798103
  0O   1py        0.000000 -0.000000  0.000000 -0.012260  0.000000  0.000000
  0O   2pz        0.539277 -0.000000 -1.084323  0.000000  0.000000 -0.000000
  0O   2px        0.000000 -0.000000 -0.000000  0.000000  0.899273  0.174644
  0O   2py       -0.000000  0.000000 -0.000000 -0.566749  0.000000 -0.000000
  0O   1dz2      -0.035825 -0.000000 -0.198250  0.000000  0.000000  0.000000
  0O   1dxz       0.000000  0.000000 -0.000000  0.000000  0.015382  0.169341
  0O   1dyz       0.000000 -0.000000 -0.000000 -0.197614  0.000000  0.000000
  0O   1dx2y2     0.031263 -0.000000 -0.026679 -0.000000  0.000000 -0.000000
  0O   1dxy      -0.000000 -0.165008  0.000000 -0.000000 -0.000000 -0.000000
  1H   1s         0.482279 -0.000000 -0.658254  0.000000  0.393550  0.247389
  1H   2s         0.524225 -0.000000 -0.153859  0.000000  0.089351  0.291067
  1H   1pz        0.297540  0.000000  0.508006 -0.000000  0.647407  0.557302
  1H   1px        0.036916  0.000000 -0.406787  0.000000 -0.455970  0.648998
  1H   1py        0.000000  0.666383  0.000000  0.744630 -0.000000  0.000000
  2H   1s         0.482279 -0.000000 -0.658254  0.000000 -0.393550 -0.247389
  2H   2s         0.524225 -0.000000 -0.153859  0.000000 -0.089351 -0.291067
  2H   1pz        0.297540  0.000000  0.508006 -0.000000 -0.647407 -0.557302
  2H   1px       -0.036916 -0.000000  0.406787 -0.000000 -0.455970  0.648998
  2H   1py       -0.000000 -0.666383  0.000000  0.744630  0.000000  0.000000
                     18        19        20        21        22        23   
                   2.57078   3.28794   3.39243   3.51585   3.93529   4.18754
                   0.00000   0.00000   0.00000   0.00000   0.00000   0.00000
                  --------  --------  --------  --------  --------  --------
  0O   1s         0.153879  0.000000  0.000000 -0.011933 -0.078568  0.000000
  0O   2s         0.746728 -0.000000  0.000000  0.045553 -0.170954 -0.000000
  0O   3s         0.666096 -0.000000 -0.000000 -0.672476 -1.763178  0.000000
  0O   1pz       -0.575997  0.000000 -0.000000  0.062810  0.363573 -0.000000
  0O   1px       -0.000000  0.000000  0.000000 -0.000000 -0.000000 -0.472445
  0O   1py       -0.000000 -0.014286 -0.000000 -0.000000 -0.000000 -0.000000
  0O   2pz       -0.211826 -0.000000  0.000000  0.583081  0.749784 -0.000000
  0O   2px       -0.000000  0.000000  0.000000 -0.000000 -0.000000 -1.115466
  0O   2py        0.000000  0.278609  0.000000  0.000000  0.000000  0.000000
  0O   1dz2      -0.105862  0.000000 -0.000000 -1.058225  0.078080  0.000000
  0O   1dxz      -0.000000  0.000000 -0.000000  0.000000  0.000000  1.316680
  0O   1dyz      -0.000000 -1.023508 -0.000000 -0.000000  0.000000  0.000000
  0O   1dx2y2    -0.271971  0.000000 -0.000000 -0.014186 -1.177141  0.000000
  0O   1dxy      -0.000000 -0.000000  1.057490 -0.000000 -0.000000  0.000000
  1H   1s        -0.418937  0.000000  0.000000  0.384760  1.072537 -1.031706
  1H   2s        -0.186373 -0.000000  0.000000  0.083189  0.211988 -0.249295
  1H   1pz       -0.438829  0.000000 -0.000000 -0.276139  0.502143 -0.447748
  1H   1px       -0.750760 -0.000000  0.000000  0.428309  0.596817 -0.625158
  1H   1py        0.000000 -0.386016  0.380849 -0.000000 -0.000000  0.000000
  2H   1s        -0.418937 -0.000000  0.000000  0.384760  1.072537  1.031706
  2H   2s        -0.186373 -0.000000  0.000000  0.083189  0.211988  0.249295
  2H   1pz       -0.438829  0.000000 -0.000000 -0.276139  0.502143  0.447748
  2H   1px        0.750760  0.000000 -0.000000 -0.428309 -0.596817 -0.625158
  2H   1py        0.000000 -0.386016 -0.380849  0.000000  0.000000 -0.000000


-------
DENSITY
-------
                  0          1          2          3          4          5    
      0       2.134526   0.278140   0.246463   0.062201  -0.000000  -0.000000
      1       0.278140   0.686148   0.451634   0.123427  -0.000000  -0.000000
      2       0.246463   0.451634   0.378056   0.299153   0.000000  -0.000000
      3       0.062201   0.123427   0.299153   0.622797  -0.000000   0.000000
      4      -0.000000  -0.000000   0.000000  -0.000000   0.474188  -0.000000
      5      -0.000000  -0.000000  -0.000000   0.000000  -0.000000   0.799325
      6       0.069029   0.144909   0.237029   0.416277  -0.000000   0.000000
      7       0.000000  -0.000000   0.000000  -0.000000   0.216012   0.000000
      8      -0.000000  -0.000000  -0.000000   0.000000  -0.000000   0.630500
      9      -0.002578  -0.005488  -0.010251  -0.019287  -0.000000  -0.000000
     10      -0.000000   0.000000  -0.000000   0.000000  -0.024203  -0.000000
     11      -0.000000   0.000000   0.000000  -0.000000  -0.000000  -0.022401
     12      -0.000128   0.003245   0.000017  -0.005151   0.000000  -0.000000
     13       0.000000  -0.000000  -0.000000  -0.000000   0.000000  -0.000000
     14       0.072082   0.132210  -0.009511  -0.244201  -0.318762   0.000000
     15      -0.009970  -0.013611  -0.030455  -0.061433  -0.080872   0.000000
     16       0.012829   0.019927   0.014467   0.006931  -0.028437   0.000000
     17       0.016576   0.024458   0.001291  -0.037013  -0.023272  -0.000000
     18       0.000000   0.000000  -0.000000  -0.000000  -0.000000   0.035738
     19       0.072082   0.132210  -0.009511  -0.244201   0.318762   0.000000
     20      -0.009970  -0.013611  -0.030455  -0.061433   0.080872   0.000000
     21       0.012829   0.019927   0.014467   0.006931   0.028437  -0.000000
     22      -0.016576  -0.024458  -0.001291   0.037013  -0.023272   0.000000
     23      -0.000000   0.000000  -0.000000  -0.000000   0.000000   0.035738
                  6          7          8          9         10         11    
      0       0.069029   0.000000  -0.000000  -0.002578  -0.000000  -0.000000
      1       0.144909  -0.000000  -0.000000  -0.005488   0.000000   0.000000
      2       0.237029   0.000000  -0.000000  -0.010251  -0.000000   0.000000
      3       0.416277  -0.000000   0.000000  -0.019287   0.000000  -0.000000
      4      -0.000000   0.216012  -0.000000  -0.000000  -0.024203  -0.000000
      5       0.000000   0.000000   0.630500  -0.000000  -0.000000  -0.022401
      6       0.284128  -0.000000   0.000000  -0.013048   0.000000  -0.000000
      7      -0.000000   0.098403   0.000000  -0.000000  -0.011026  -0.000000
      8       0.000000   0.000000   0.497332  -0.000000  -0.000000  -0.017670
      9      -0.013048  -0.000000  -0.000000   0.000601  -0.000000   0.000000
     10       0.000000  -0.011026  -0.000000  -0.000000   0.001235   0.000000
     11      -0.000000  -0.000000  -0.017670   0.000000   0.000000   0.000628
     12      -0.003042   0.000000  -0.000000   0.000149  -0.000000   0.000000
     13      -0.000000   0.000000  -0.000000   0.000000  -0.000000   0.000000
     14      -0.146161  -0.145209   0.000000   0.007108   0.016270  -0.000000
     15      -0.041201  -0.036841   0.000000   0.001906   0.004128  -0.000000
     16       0.006388  -0.012954   0.000000  -0.000261   0.001451  -0.000000
     17      -0.021732  -0.010602  -0.000000   0.001066   0.001188   0.000000
     18      -0.000000  -0.000000   0.028190  -0.000000   0.000000  -0.001002
     19      -0.146161   0.145209   0.000000   0.007108  -0.016270  -0.000000
     20      -0.041201   0.036841   0.000000   0.001906  -0.004128  -0.000000
     21       0.006388   0.012954  -0.000000  -0.000261  -0.001451   0.000000
     22       0.021732  -0.010602   0.000000  -0.001066   0.001188   0.000000
     23      -0.000000   0.000000   0.028190  -0.000000  -0.000000  -0.001002
                 12         13         14         15         16         17    
      0      -0.000128   0.000000   0.072082  -0.009970   0.012829   0.016576
      1       0.003245  -0.000000   0.132210  -0.013611   0.019927   0.024458
      2       0.000017  -0.000000  -0.009511  -0.030455   0.014467   0.001291
      3      -0.005151  -0.000000  -0.244201  -0.061433   0.006931  -0.037013
      4       0.000000   0.000000  -0.318762  -0.080872  -0.028437  -0.023272
      5      -0.000000  -0.000000   0.000000   0.000000   0.000000  -0.000000
      6      -0.003042  -0.000000  -0.146161  -0.041201   0.006388  -0.021732
      7       0.000000   0.000000  -0.145209  -0.036841  -0.012954  -0.010602
      8      -0.000000  -0.000000   0.000000   0.000000   0.000000  -0.000000
      9       0.000149   0.000000   0.007108   0.001906  -0.000261   0.001066
     10      -0.000000  -0.000000   0.016270   0.004128   0.001451   0.001188
     11       0.000000   0.000000  -0.000000  -0.000000  -0.000000   0.000000
     12       0.000071   0.000000   0.003168   0.000501   0.000059   0.000506
     13       0.000000   0.000000  -0.000000  -0.000000  -0.000000  -0.000000
     14       0.003168  -0.000000   0.359612   0.078022   0.021518   0.038924
     15       0.000501  -0.000000   0.078022   0.019861   0.004118   0.007539
     16       0.000059  -0.000000   0.021518   0.004118   0.002314   0.001893
     17       0.000506  -0.000000   0.038924   0.007539   0.001893   0.004897
     18      -0.000000  -0.000000   0.000000   0.000000   0.000000   0.000000
     19       0.003168   0.000000  -0.068949  -0.030707  -0.016715   0.007635
     20       0.000501   0.000000  -0.030707  -0.007725  -0.005581  -0.000399
     21       0.000059   0.000000  -0.016715  -0.005581  -0.001097  -0.000899
     22      -0.000506  -0.000000  -0.007635   0.000399   0.000899  -0.002613
     23      -0.000000  -0.000000   0.000000   0.000000   0.000000  -0.000000
                 18         19         20         21         22         23    
      0       0.000000   0.072082  -0.009970   0.012829  -0.016576  -0.000000
      1       0.000000   0.132210  -0.013611   0.019927  -0.024458   0.000000
      2      -0.000000  -0.009511  -0.030455   0.014467  -0.001291  -0.000000
      3      -0.000000  -0.244201  -0.061433   0.006931   0.037013  -0.000000
      4      -0.000000   0.318762   0.080872   0.028437  -0.023272   0.000000
      5       0.035738   0.000000   0.000000  -0.000000   0.000000   0.035738
      6      -0.000000  -0.146161  -0.041201   0.006388   0.021732  -0.000000
      7      -0.000000   0.145209   0.036841   0.012954  -0.010602   0.000000
      8       0.028190   0.000000   0.000000  -0.000000   0.000000   0.028190
      9      -0.000000   0.007108   0.001906  -0.000261  -0.001066  -0.000000
     10       0.000000  -0.016270  -0.004128  -0.001451   0.001188  -0.000000
     11      -0.001002  -0.000000  -0.000000   0.000000   0.000000  -0.001002
     12      -0.000000   0.003168   0.000501   0.000059  -0.000506  -0.000000
     13      -0.000000   0.000000   0.000000   0.000000  -0.000000  -0.000000
     14       0.000000  -0.068949  -0.030707  -0.016715  -0.007635   0.000000
     15       0.000000  -0.030707  -0.007725  -0.005581   0.000399   0.000000
     16       0.000000  -0.016715  -0.005581  -0.001097   0.000899   0.000000
     17       0.000000   0.007635  -0.000399  -0.000899  -0.002613  -0.000000
     18       0.001598   0.000000   0.000000  -0.000000  -0.000000   0.001598
     19       0.000000   0.359612   0.078022   0.021518  -0.038924   0.000000
     20       0.000000   0.078022   0.019861   0.004118  -0.007539   0.000000
     21      -0.000000   0.021518   0.004118   0.002314  -0.001893  -0.000000
     22      -0.000000  -0.038924  -0.007539  -0.001893   0.004897  -0.000000
     23       0.001598   0.000000   0.000000  -0.000000  -0.000000   0.001598



                    ********************************
                    * MULLIKEN POPULATION ANALYSIS *
                    ********************************

-----------------------
MULLIKEN ATOMIC CHARGES
-----------------------
   0 O :   -0.376199
   1 H :    0.188100
   2 H :    0.188100
Sum of atomic charges:   -0.0000000

------------------------
MULLIKEN ORBITAL CHARGES
------------------------
The uncorrected charge=density diagonal is given in parenthesis)
   0:   0O   1s           1.990871 (  2.134526)
   1:   0O   2s           1.047917 (  0.686148)
   2:   0O   3s           0.650283 (  0.378056)
   3:   0O   1pz          0.936644 (  0.622797)
   4:   0O   1px          0.764701 (  0.474188)
   5:   0O   1py          1.128513 (  0.799325)
   6:   0O   2pz          0.629184 (  0.284128)
   7:   0O   2px          0.383144 (  0.098403)
   8:   0O   2py          0.834107 (  0.497332)
   9:   0O   1dz2         0.001013 (  0.000601)
  10:   0O   1dxz         0.007896 (  0.001235)
  11:   0O   1dyz         0.000980 (  0.000628)
  12:   0O   1dx2y2       0.000948 (  0.000071)
  13:   0O   1dxy         0.000000 (  0.000000)
  14:   1H   1s           0.672623 (  0.359612)
  15:   1H   2s           0.066492 (  0.019861)
  16:   1H   1pz          0.021096 (  0.002314)
  17:   1H   1px          0.033489 (  0.004897)
  18:   1H   1py          0.018200 (  0.001598)
  19:   2H   1s           0.672623 (  0.359612)
  20:   2H   2s           0.066492 (  0.019861)
  21:   2H   1pz          0.021096 (  0.002314)
  22:   2H   1px          0.033489 (  0.004897)
  23:   2H   1py          0.018200 (  0.001598)
Sum of orbital charges :   10.0000000

--------------------------------
MULLIKEN REDUCED ORBITAL CHARGES
--------------------------------
  0 O s       :     3.689071  s :     3.689071
      pz      :     1.565828  p :     4.676293
      px      :     1.147846
      py      :     1.962620
      dz2     :     0.001013  d :     0.010836
      dxz     :     0.007896
      dyz     :     0.000980
      dx2y2   :     0.000948
      dxy     :     0.000000
  1 H s       :     0.739115  s :     0.739115
      pz      :     0.021096  p :     0.072786
      px      :     0.033489
      py      :     0.018200
  2 H s       :     0.739115  s :     0.739115
      pz      :     0.021096  p :     0.072786
      px      :     0.033489
      py      :     0.018200

------------------------
MULLIKEN OVERLAP CHARGES
------------------------
B(  0-O ,  1-H ) :   0.6871 B(  0-O ,  2-H ) :   0.6871 B(  1-H ,  2-H ) :  -0.0536 


-----------------------------------
MULLIKEN ORBITAL POPULATIONS PER MO
-----------------------------------
THRESHOLD FOR PRINTING IS 0.1%
                      0         1         2         3         4         5   
                 -20.54485  -1.30836  -0.70560  -0.55595  -0.49514   0.17499
                   2.00000   2.00000   2.00000   2.00000   2.00000   0.00000
                  --------  --------  --------  --------  --------  --------
  0O   1s             99.0       0.5      -0.0       0.0       0.0       0.0
  0O   2s              1.2      47.0       0.0       4.2       0.0       1.6
  0O   3s             -0.2      27.5       0.0       5.2      -0.0     -17.5
  0O   1pz             0.0       1.2       0.0      45.6       0.0       4.2
  0O   1px             0.0       0.0      38.2       0.0       0.0       0.0
  0O   1py            -0.0       0.0       0.0       0.0      56.4       0.0
  0O   2pz            -0.0      -0.0      -0.0      31.5       0.0      -0.4
  0O   2px            -0.0       0.0      19.2       0.0       0.0      -0.0
  0O   2py             0.0       0.0       0.0       0.0      41.7       0.0
  0O   1dxz            0.0       0.0       0.4       0.0       0.0      -0.0
  1H   1s             -0.0      10.2      18.0       5.4       0.0       1.6
  1H   2s              0.0       0.4       2.3       0.6       0.0      55.1
  1H   1pz            -0.0       0.3       0.6       0.2      -0.0      -0.2
  1H   1px            -0.0       1.1       0.2       0.5       0.0      -0.4
  1H   1py             0.0       0.0       0.0       0.0       0.9       0.0
  2H   1s             -0.0      10.2      18.0       5.4       0.0       1.6
  2H   2s              0.0       0.4       2.3       0.6       0.0      55.1
  2H   1pz            -0.0       0.3       0.6       0.2       0.0      -0.2
  2H   1px            -0.0       1.1       0.2       0.5      -0.0      -0.4
  2H   1py            -0.0       0.0       0.0       0.0       0.9       0.0

                      6         7         8         9        10        11   
                   0.25303   0.80460   0.83396   1.18531   1.20341   1.26597
                   0.00000   0.00000   0.00000   0.00000   0.00000   0.00000
                  --------  --------  --------  --------  --------  --------
  0O   2s             -0.0       0.0       5.4       4.3       0.0       0.0
  0O   3s             -0.0       0.0      -0.1      -1.1       0.0       0.0
  0O   1pz             0.0       0.0       7.5      33.0       0.0       0.0
  0O   1px            10.0       9.1       0.0       0.0       0.0      27.3
  0O   1py             0.0       0.0      -0.0       0.0      43.5       0.0
  0O   2pz             0.0       0.0      -0.2      59.2       0.0       0.0
  0O   2px            -7.5       7.2       0.0       0.0       0.0      79.7
  0O   2py             0.0       0.0       0.0       0.0      56.2       0.0
  0O   1dxz           -0.1       4.4       0.0      -0.0      -0.0      -0.9
  0O   1dx2y2          0.0       0.0       3.1       0.0      -0.0       0.0
  1H   1s              0.4      30.6      30.2      -1.0      -0.0      -4.4
  1H   2s             49.0       4.4       3.1      -0.0       0.0      -5.4
  1H   1pz            -0.2       4.3       0.1       4.0       0.0      -1.0
  1H   1px            -0.4       0.4       8.8      -0.7      -0.0       7.8
  1H   1py             0.0       0.0       0.0      -0.0       0.2       0.0
  2H   1s              0.4      30.6      30.2      -1.0      -0.0      -4.4
  2H   2s             49.0       4.4       3.1      -0.0       0.0      -5.4
  2H   1pz            -0.2       4.3       0.1       4.0       0.0      -1.0
  2H   1px            -0.4       0.4       8.8      -0.7      -0.0       7.8
  2H   1py             0.0      -0.0      -0.0       0.0       0.2      -0.0

                     12        13        14        15        16        17   
                   1.33204   1.57983   1.72809   1.83201   2.01422   2.54904
                   0.00000   0.00000   0.00000   0.00000   0.00000   0.00000
                  --------  --------  --------  --------  --------  --------
  0O   1s              0.2       0.0       0.0      -0.0       0.0       0.0
  0O   2s             28.6       0.0       2.4      -0.0       0.0       0.0
  0O   3s             74.3       0.0      11.7       0.0       0.0      -0.0
  0O   1pz             0.2       0.0      -0.1       0.0       0.0       0.0
  0O   1px             0.0       0.0      -0.0       0.0       0.0      13.5
  0O   2pz             1.4       0.0      11.4       0.0       0.0      -0.0
  0O   2px             0.0      -0.0       0.0      -0.0       5.9      -1.5
  0O   2py             0.0       0.0       0.0       2.3       0.0      -0.0
  0O   1dz2            0.5       0.0      10.3       0.0       0.0      -0.0
  0O   1dxz            0.0      -0.0       0.0       0.0       0.0       9.4
  0O   1dyz            0.0      -0.0       0.0       9.1       0.0       0.0
  0O   1dx2y2          0.9       0.0       0.1      -0.0       0.0       0.0
  0O   1dxy            0.0       8.2       0.0       0.0       0.0       0.0
  1H   1s             -2.8      -0.0       0.8       0.0       0.5       0.6
  1H   2s             -7.8      -0.0      -1.0      -0.0      -0.1       0.0
  1H   1pz             8.1       0.0      23.8       0.0      28.9      16.3
  1H   1px            -0.6       0.0       8.5       0.0      17.8      22.4
  1H   1py             0.0      45.9      -0.0      44.3      -0.0       0.0
  2H   1s             -2.8      -0.0       0.8      -0.0       0.5       0.6
  2H   2s             -7.8      -0.0      -1.0      -0.0      -0.1       0.0
  2H   1pz             8.1       0.0      23.8       0.0      28.9      16.3
  2H   1px            -0.6       0.0       8.5       0.0      17.8      22.4
  2H   1py             0.0      45.9       0.0      44.3       0.0       0.0

                     18        19        20        21        22        23   
                   2.57078   3.28794   3.39243   3.51585   3.93529   4.18754
                   0.00000   0.00000   0.00000   0.00000   0.00000   0.00000
                  --------  --------  --------  --------  --------  --------
  0O   2s              5.0       0.0      -0.0      -0.0       0.3       0.0
  0O   3s             -1.0       0.0       0.0       0.5       0.7       0.0
  0O   1pz             6.8       0.0       0.0       0.0       1.6       0.0
  0O   1px             0.0       0.0      -0.0      -0.0      -0.0       1.8
  0O   2pz            -1.3       0.0       0.0      -0.3      -1.2       0.0
  0O   2px            -0.0       0.0      -0.0      -0.0      -0.0      -2.9
  0O   2py             0.0      -0.1      -0.0      -0.0      -0.0       0.0
  0O   1dz2            1.5       0.0       0.0      87.1       0.4       0.0
  0O   1dxz            0.0       0.0       0.0       0.0       0.0      86.8
  0O   1dyz            0.0      90.9       0.0       0.0       0.0       0.0
  0O   1dx2y2         15.8       0.0       0.0       0.0      80.2       0.0
  0O   1dxy            0.0       0.0      91.8       0.0       0.0       0.0
  1H   1s              1.2       0.0      -0.0       0.4       4.0       4.2
  1H   2s             -0.0       0.0      -0.0      -0.1      -0.3      -0.1
  1H   1pz             9.3       0.0       0.0       2.1       2.3       1.2
  1H   1px            26.1       0.0       0.0       3.9       2.9       1.9
  1H   1py             0.0       4.6       4.1       0.0       0.0      -0.0
  2H   1s              1.2      -0.0      -0.0       0.4       4.0       4.2
  2H   2s             -0.0       0.0       0.0      -0.1      -0.3      -0.1
  2H   1pz             9.3       0.0       0.0       2.1       2.3       1.2
  2H   1px            26.1       0.0       0.0       3.9       2.9       1.9
  2H   1py             0.0       4.6       4.1       0.0      -0.0      -0.0



                     *******************************
                     * LOEWDIN POPULATION ANALYSIS *
                     *******************************

----------------------
LOEWDIN ATOMIC CHARGES
----------------------
   0 O :   -0.171810
   1 H :    0.085905
   2 H :    0.085905

-----------------------
LOEWDIN ORBITAL CHARGES
-----------------------
   0:   0O   1s           1.973225
   1:   0O   2s           0.845892
   2:   0O   3s           0.606968
   3:   0O   1pz          0.894637
   4:   0O   1px          0.688572
   5:   0O   1py          1.089680
   6:   0O   2pz          0.714975
   7:   0O   2px          0.532652
   8:   0O   2py          0.805481
   9:   0O   1dz2         0.000401
  10:   0O   1dxz         0.015394
  11:   0O   1dyz         0.000279
  12:   0O   1dx2y2       0.003654
  13:   0O   1dxy         0.000000
  14:   1H   1s           0.563499
  15:   1H   2s           0.172451
  16:   1H   1pz          0.058130
  17:   1H   1px          0.067736
  18:   1H   1py          0.052280
  19:   2H   1s           0.563499
  20:   2H   2s           0.172451
  21:   2H   1pz          0.058130
  22:   2H   1px          0.067736
  23:   2H   1py          0.052280

-------------------------------
LOEWDIN REDUCED ORBITAL CHARGES
-------------------------------
  0 O s       :     3.426085  s :     3.426085
      pz      :     1.609612  p :     4.725996
      px      :     1.221224
      py      :     1.895160
      dz2     :     0.000401  d :     0.019728
      dxz     :     0.015394
      dyz     :     0.000279
      dx2y2   :     0.003654
      dxy     :     0.000000
  1 H s       :     0.735949  s :     0.735949
      pz      :     0.058130  p :     0.178146
      px      :     0.067736
      py      :     0.052280
  2 H s       :     0.735949  s :     0.735949
      pz      :     0.058130  p :     0.178146
      px      :     0.067736
      py      :     0.052280

---------------------------------
LOEWDIN BOND ORDERS (THRESH 0.050000)
---------------------------------
B(  0-O ,  1-H ) :   1.1461 B(  0-O ,  2-H ) :   1.1461 

----------------------------------
LOEWDIN ORBITAL POPULATIONS PER MO
----------------------------------
THRESHOLD FOR PRINTING IS 0.1%
                      0         1         2         3         4         5   
                 -20.54485  -1.30836  -0.70560  -0.55595  -0.49514   0.17499
                   2.00000   2.00000   2.00000   2.00000   2.00000   0.00000
                  --------  --------  --------  --------  --------  --------
  0O   1s             95.8       2.6       0.0       0.2       0.0       0.2
  0O   2s              3.8      33.7       0.0       4.8       0.0       5.4
  0O   3s              0.2      26.0       0.0       4.1       0.0       2.4
  0O   1pz             0.0       0.7       0.0      44.0       0.0       3.7
  0O   1px             0.0       0.0      34.4       0.0       0.0       0.0
  0O   1py             0.0       0.0       0.0       0.0      54.5       0.0
  0O   2pz             0.0       0.3       0.0      35.5       0.0       0.5
  0O   2px             0.0       0.0      26.6       0.0       0.0       0.0
  0O   2py             0.0       0.0       0.0       0.0      40.3       0.0
  0O   1dxz            0.0       0.0       0.8       0.0       0.0       0.0
  0O   1dx2y2          0.0       0.0       0.0       0.2       0.0       0.2
  1H   1s              0.0       9.0      15.2       4.0       0.0       0.4
  1H   2s              0.0       5.6       2.7       0.3       0.0      38.2
  1H   1pz             0.0       1.1       1.0       0.8       0.0       1.0
  1H   1px             0.0       2.7       0.2       0.5       0.0       4.2
  1H   1py             0.0       0.0       0.0       0.0       2.6       0.0
  2H   1s              0.0       9.0      15.2       4.0       0.0       0.4
  2H   2s              0.0       5.6       2.7       0.3       0.0      38.2
  2H   1pz             0.0       1.1       1.0       0.8       0.0       1.0
  2H   1px             0.0       2.7       0.2       0.5       0.0       4.2
  2H   1py             0.0       0.0       0.0       0.0       2.6       0.0

                      6         7         8         9        10        11   
                   0.25303   0.80460   0.83396   1.18531   1.20341   1.26597
                   0.00000   0.00000   0.00000   0.00000   0.00000   0.00000
                  --------  --------  --------  --------  --------  --------
  0O   1s              0.0       0.0       0.2       0.1       0.0       0.0
  0O   2s              0.0       0.0       2.9       5.2       0.0       0.0
  0O   3s              0.0       0.0       0.6       0.9       0.0       0.0
  0O   1pz             0.0       0.0       6.4      34.9       0.0       0.0
  0O   1px            10.8       7.4       0.0       0.0       0.0      27.4
  0O   1py             0.0       0.0       0.0       0.0      45.2       0.0
  0O   2pz             0.0       0.0       0.0      48.2       0.0       0.0
  0O   2px             0.4       5.1       0.0       0.0       0.0      54.6
  0O   2py             0.0       0.0       0.0       0.0      51.6       0.0
  0O   1dxz            0.3      10.5       0.0       0.0       0.0       3.4
  0O   1dx2y2          0.0       0.0       5.3       1.1       0.0       0.0
  1H   1s              0.7      24.8      26.1       0.4       0.0       0.0
  1H   2s             38.3       6.4       5.5       0.1       0.0       2.0
  1H   1pz             2.5       6.6       0.1       4.1       0.0       0.2
  1H   1px             2.7       0.7      10.6       0.3       0.0       5.2
  1H   1py             0.0       0.0       0.0       0.0       1.6       0.0
  2H   1s              0.7      24.8      26.1       0.4       0.0       0.0
  2H   2s             38.3       6.4       5.5       0.1       0.0       2.0
  2H   1pz             2.5       6.6       0.1       4.1       0.0       0.2
  2H   1px             2.7       0.7      10.6       0.3       0.0       5.2
  2H   1py             0.0       0.0       0.0       0.0       1.6       0.0

                     12        13        14        15        16        17   
                   1.33204   1.57983   1.72809   1.83201   2.01422   2.54904
                   0.00000   0.00000   0.00000   0.00000   0.00000   0.00000
                  --------  --------  --------  --------  --------  --------
  0O   1s              0.5       0.0       0.0       0.0       0.0       0.0
  0O   2s             28.7       0.0       3.7       0.0       0.0       0.0
  0O   3s             48.1       0.0       7.4       0.0       0.0       0.0
  0O   1pz             0.3       0.0       0.1       0.0       0.0       0.0
  0O   1px             0.0       0.0       0.0       0.0       0.1      17.2
  0O   1py             0.0       0.0       0.0       0.3       0.0       0.0
  0O   2pz             0.0       0.0      12.6       0.0       0.0       0.0
  0O   2px             0.0       0.0       0.0       0.0       9.1       0.3
  0O   2py             0.0       0.0       0.0       7.1       0.0       0.0
  0O   1dz2            0.6       0.0      14.9       0.0       0.0       0.0
  0O   1dxz            0.0       0.0       0.0       0.0       0.3      18.5
  0O   1dyz            0.0       0.0       0.0      11.7       0.0       0.0
  0O   1dx2y2          5.2       0.0       0.7       0.0       0.0       0.0
  0O   1dxy            0.0      11.0       0.0       0.0       0.0       0.0
  1H   1s              0.1       0.0       2.1       0.0       1.0       0.3
  1H   2s              0.0       0.0       0.2       0.0       0.0       0.5
  1H   1pz             6.0       0.0      23.5       0.0      25.0      13.4
  1H   1px             2.1       0.0       4.6       0.0      19.3      17.7
  1H   1py             0.0      44.5       0.0      40.5       0.0       0.0
  2H   1s              0.1       0.0       2.1       0.0       1.0       0.3
  2H   2s              0.0       0.0       0.2       0.0       0.0       0.5
  2H   1pz             6.0       0.0      23.5       0.0      25.0      13.4
  2H   1px             2.1       0.0       4.6       0.0      19.3      17.7
  2H   1py             0.0      44.5       0.0      40.5       0.0       0.0

                     18        19        20        21        22        23   
                   2.57078   3.28794   3.39243   3.51585   3.93529   4.18754
                   0.00000   0.00000   0.00000   0.00000   0.00000   0.00000
                  --------  --------  --------  --------  --------  --------
  0O   1s              0.2       0.0       0.0       0.0       0.0       0.0
  0O   2s             10.5       0.0       0.0       0.0       1.4       0.0
  0O   3s              1.4       0.0       0.0       1.0       7.8       0.0
  0O   1pz             8.1       0.0       0.0       0.1       1.7       0.0
  0O   1px             0.0       0.0       0.0       0.0       0.0       2.7
  0O   2pz             0.1       0.0       0.0       1.9       0.9       0.0
  0O   2px             0.0       0.0       0.0       0.0       0.0       3.9
  0O   2py             0.0       1.0       0.0       0.0       0.0       0.0
  0O   1dz2            1.7       0.0       0.0      82.2       0.5       0.0
  0O   1dxz            0.0       0.0       0.0       0.0       0.0      66.2
  0O   1dyz            0.0      88.3       0.0       0.0       0.0       0.0
  0O   1dx2y2         24.3       0.0       0.0       0.0      62.9       0.0
  0O   1dxy            0.0       0.0      89.0       0.0       0.0       0.0
  1H   1s              0.8       0.0       0.0       0.6       6.6       8.0
  1H   2s              0.2       0.0       0.0       0.0       0.0       0.1
  1H   1pz             6.8       0.0       0.0       3.1       3.5       1.3
  1H   1px            19.2       0.0       0.0       3.6       2.3       4.1
  1H   1py             0.0       5.3       5.5       0.0       0.0       0.0
  2H   1s              0.8       0.0       0.0       0.6       6.6       8.0
  2H   2s              0.2       0.0       0.0       0.0       0.0       0.1
  2H   1pz             6.8       0.0       0.0       3.1       3.5       1.3
  2H   1px            19.2       0.0       0.0       3.6       2.3       4.1
  2H   1py             0.0       5.3       5.5       0.0       0.0       0.0


------------------------------------------
LOEWDIN REDUCED ORBITAL POPULATIONS PER MO
-------------------------------------------
THRESHOLD FOR PRINTING IS 0.1%
                      0         1         2         3         4         5   
                 -20.54485  -1.30836  -0.70560  -0.55595  -0.49514   0.17499
                   2.00000   2.00000   2.00000   2.00000   2.00000   0.00000
                  --------  --------  --------  --------  --------  --------
 0 O  s              99.8      62.3       0.0       9.2       0.0       8.0
 0 O  pz              0.0       1.0       0.0      79.5       0.0       4.3
 0 O  px              0.0       0.0      61.1       0.0       0.0       0.0
 0 O  py              0.0       0.0       0.0       0.0      94.8       0.0
 0 O  dxz             0.0       0.0       0.8       0.0       0.0       0.0
 0 O  dx2y2           0.0       0.0       0.0       0.2       0.0       0.2
 1 H  s               0.0      14.6      17.9       4.3       0.0      38.5
 1 H  pz              0.0       1.1       1.0       0.8       0.0       1.0
 1 H  px              0.0       2.7       0.2       0.5       0.0       4.2
 1 H  py              0.0       0.0       0.0       0.0       2.6       0.0
 2 H  s               0.0      14.6      17.9       4.3       0.0      38.5
 2 H  pz              0.0       1.1       1.0       0.8       0.0       1.0
 2 H  px              0.0       2.7       0.2       0.5       0.0       4.2
 2 H  py              0.0       0.0       0.0       0.0       2.6       0.0

                      6         7         8         9        10        11   
                   0.25303   0.80460   0.83396   1.18531   1.20341   1.26597
                   0.00000   0.00000   0.00000   0.00000   0.00000   0.00000
                  --------  --------  --------  --------  --------  --------
 0 O  s               0.0       0.0       3.7       6.2       0.0       0.0
 0 O  pz              0.0       0.0       6.4      83.1       0.0       0.0
 0 O  px             11.3      12.5       0.0       0.0       0.0      81.9
 0 O  py              0.0       0.0       0.0       0.0      96.8       0.0
 0 O  dxz             0.3      10.5       0.0       0.0       0.0       3.4
 0 O  dx2y2           0.0       0.0       5.3       1.1       0.0       0.0
 1 H  s              39.0      31.2      31.6       0.5       0.0       2.0
 1 H  pz              2.5       6.6       0.1       4.1       0.0       0.2
 1 H  px              2.7       0.7      10.6       0.3       0.0       5.2
 1 H  py              0.0       0.0       0.0       0.0       1.6       0.0
 2 H  s              39.0      31.2      31.6       0.5       0.0       2.0
 2 H  pz              2.5       6.6       0.1       4.1       0.0       0.2
 2 H  px              2.7       0.7      10.6       0.3       0.0       5.2
 2 H  py              0.0       0.0       0.0       0.0       1.6       0.0

                     12        13        14        15        16        17   
                   1.33204   1.57983   1.72809   1.83201   2.01422   2.54904
                   0.00000   0.00000   0.00000   0.00000   0.00000   0.00000
                  --------  --------  --------  --------  --------  --------
 0 O  s              77.4       0.0      11.1       0.0       0.0       0.0
 0 O  pz              0.4       0.0      12.6       0.0       0.0       0.0
 0 O  px              0.0       0.0       0.0       0.0       9.2      17.5
 0 O  py              0.0       0.0       0.0       7.4       0.0       0.0
 0 O  dz2             0.6       0.0      14.9       0.0       0.0       0.0
 0 O  dxz             0.0       0.0       0.0       0.0       0.3      18.5
 0 O  dyz             0.0       0.0       0.0      11.7       0.0       0.0
 0 O  dx2y2           5.2       0.0       0.7       0.0       0.0       0.0
 0 O  dxy             0.0      11.0       0.0       0.0       0.0       0.0
 1 H  s               0.1       0.0       2.2       0.0       1.0       0.8
 1 H  pz              6.0       0.0      23.5       0.0      25.0      13.4
 1 H  px              2.1       0.0       4.6       0.0      19.3      17.7
 1 H  py              0.0      44.5       0.0      40.5       0.0       0.0
 2 H  s               0.1       0.0       2.2       0.0       1.0       0.8
 2 H  pz              6.0       0.0      23.5       0.0      25.0      13.4
 2 H  px              2.1       0.0       4.6       0.0      19.3      17.7
 2 H  py              0.0      44.5       0.0      40.5       0.0       0.0

                     18        19        20        21        22        23   
                   2.57078   3.28794   3.39243   3.51585   3.93529   4.18754
                   0.00000   0.00000   0.00000   0.00000   0.00000   0.00000
                  --------  --------  --------  --------  --------  --------
 0 O  s              12.1       0.0       0.0       1.0       9.3       0.0
 0 O  pz              8.2       0.0       0.0       2.0       2.6       0.0
 0 O  px              0.0       0.0       0.0       0.0       0.0       6.6
 0 O  py              0.0       1.0       0.0       0.0       0.0       0.0
 0 O  dz2             1.7       0.0       0.0      82.2       0.5       0.0
 0 O  dxz             0.0       0.0       0.0       0.0       0.0      66.2
 0 O  dyz             0.0      88.3       0.0       0.0       0.0       0.0
 0 O  dx2y2          24.3       0.0       0.0       0.0      62.9       0.0
 0 O  dxy             0.0       0.0      89.0       0.0       0.0       0.0
 1 H  s               0.9       0.0       0.0       0.6       6.6       8.1
 1 H  pz              6.8       0.0       0.0       3.1       3.5       1.3
 1 H  px             19.2       0.0       0.0       3.6       2.3       4.1
 1 H  py              0.0       5.3       5.5       0.0       0.0       0.0
 2 H  s               0.9       0.0       0.0       0.6       6.6       8.1
 2 H  pz              6.8       0.0       0.0       3.1       3.5       1.3
 2 H  px             19.2       0.0       0.0       3.6       2.3       4.1
 2 H  py              0.0       5.3       5.5       0.0       0.0       0.0



                      *****************************
                      * MAYER POPULATION ANALYSIS *
                      *****************************

  NA   - Mulliken gross atomic population
  ZA   - Total nuclear charge
  QA   - Mulliken gross atomic charge
  VA   - Mayer's total valence
  BVA  - Mayer's bonded valence
  FA   - Mayer's free valence

  ATOM       NA         ZA         QA         VA         BVA        FA
  0 O      8.3762     8.0000    -0.3762     1.9755     1.9755    -0.0000
  1 H      0.8119     1.0000     0.1881     0.9955     0.9955    -0.0000
  2 H      0.8119     1.0000     0.1881     0.9955     0.9955     0.0000

  Mayer bond orders larger than 0.100000
B(  0-O ,  1-H ) :   0.9878 B(  0-O ,  2-H ) :   0.9878 

-------
TIMINGS
-------

Total SCF time: 0 days 0 hours 0 min 0 sec 

Total time                  ....       0.156 sec
Sum of individual times     ....       0.015 sec  (  9.8%)

Fock matrix formation       ....       0.010 sec  (  6.5%)
Diagonalization             ....       0.000 sec  (  0.1%)
Density matrix formation    ....       0.000 sec  (  0.0%)
Population analysis         ....       0.004 sec  (  2.3%)
Initial guess               ....       0.001 sec  (  0.8%)
Orbital Transformation      ....       0.000 sec  (  0.0%)
Orbital Orthonormalization  ....       0.000 sec  (  0.1%)
DIIS solution               ....       0.000 sec  (  0.0%)
SOSCF solution              ....       0.000 sec  (  0.1%)

Maximum memory used throughout the entire SCF-calculation: 224.4 MB

-------------------------   --------------------
FINAL SINGLE POINT ENERGY       -75.959340313461
-------------------------   --------------------


                            ***************************************
                            *     ORCA property calculations      *
                            ***************************************

                                    ---------------------
                                    Active property flags
                                    ---------------------
   (+) Dipole Moment


------------------------------------------------------------------------------
                       ORCA ELECTRIC PROPERTIES CALCULATION
------------------------------------------------------------------------------

Dipole Moment Calculation                       ... on
Quadrupole Moment Calculation                   ... off
Polarizability Calculation                      ... off
GBWName                                         ... water.gbw
Electron density                                ... water.scfp
SHARK General Contraction Test:  Segmented basis detected
   -> Pre-screening matrix found on disk - Trying to read with NShells=12
   -> Passing Pre-screening matrix on to SHARK ...ok
   -> Leaving CheckPreScreeningMatrix
----------------------
SHARK INTEGRAL PACKAGE
----------------------

Number of atoms                             ...      3
Number of basis functions                   ...     24
Number of shells                            ...     12
Maximum angular momentum                    ...      2
Integral batch strategy                     ... SHARK/LIBINT Hybrid
RI-J (if used) integral strategy            ... SPLIT-RIJ (Revised 2003 algorithm where possible)
Printlevel                                  ...      2
Contraction scheme used                     ... SEGMENTED contraction
Coulomb Range Separation                    ... NOT USED
Exchange Range Separation                   ... NOT USED
Finite Nucleus Model                        ... NOT USED
Auxiliary Coulomb fitting basis             ... NOT available
Auxiliary J/K fitting basis                 ... NOT available
Auxiliary Correlation fitting basis         ... NOT available
Auxiliary 'external' fitting basis          ... NOT available
Integral threshold                          ...     1.000000e-10
Primitive cut-off                           ...     1.000000e-11
Primitive pair pre-selection threshold      ...     1.000000e-11

The origin for moment calculation is the CENTER OF MASS  = ( 0.000000,  0.000000 -0.000107)

-------------
DIPOLE MOMENT
-------------
                                X             Y             Z
Electronic contribution:      0.00000      -0.00000       0.11911
Nuclear contribution   :      0.00000       0.00000      -0.93208
                        -----------------------------------------
Total Dipole Moment    :      0.00000      -0.00000      -0.81297
                        -----------------------------------------
Magnitude (a.u.)       :      0.81297
Magnitude (Debye)      :      2.06640



--------------------
Rotational spectrum 
--------------------
 
Rotational constants in cm-1:    30.034947    13.330794     9.232857 
Rotational constants in MHz : 900425.051220 399647.143338 276794.089602 

 Dipole components along the rotational axes: 
x,y,z [a.u.] :     0.000000    -0.812967    -0.000000 
x,y,z [Debye]:     0.000000    -2.066397    -0.000000 

 

Timings for individual modules:

Sum of individual times         ...        0.260 sec (=   0.004 min)
GTO integral calculation        ...        0.083 sec (=   0.001 min)  31.9 %
SCF iterations                  ...        0.177 sec (=   0.003 min)  68.1 %
                             ****ORCA TERMINATED NORMALLY****
TOTAL RUN TIME: 0 days 0 hours 0 minutes 0 seconds 339 msec
