water energy                                                            
SP        RHF                                                         6-31G(d)            
Number of atoms                            I                3
Info1-9                                    I   N=           9
          10          10           0           0           0         110
           1           1           2
Full Title                                 C   N=           1
water energy
Route                                      C   N=           2
# RHF/6-31G(d) Pop=Full 
Charge                                     I                0
Multiplicity                               I                1
Number of electrons                        I               10
Number of alpha electrons                  I                5
Number of beta electrons                   I                5
Number of basis functions                  I               19
Number of independent functions            I               19
Number of point charges in /Mol/           I                0
Number of translation vectors              I                0
Atomic numbers                             I   N=           3
           8           1           1
Nuclear charges                            R   N=           3
  8.00000000E+00  1.00000000E+00  1.00000000E+00
Current cartesian coordinates              R   N=           9
  1.23259516E-32 -1.38777878E-17  1.88972612E-01 -9.86076132E-32  1.63655083E+00
 -7.55890450E-01 -2.00419674E-16 -1.63655083E+00 -7.55890450E-01
Number of symbols in /Mol/                 I                0
Force Field                                I                0
Atom Types                                 C   N=           3
                                    
Int Atom Types                             I   N=           3
           0           0           0
MM charges                                 R   N=           3
  0.00000000E+00  0.00000000E+00  0.00000000E+00
Integer atomic weights                     I   N=           3
          16           1           1
Real atomic weights                        R   N=           3
  1.59949146E+01  1.00782504E+00  1.00782504E+00
Atom fragment info                         I   N=           3
           0           0           0
Atom residue num                           I   N=           3
           0           0           0
Nuclear spins                              I   N=           3
           0           1           1
Nuclear ZEff                               R   N=           3
 -5.60000000E+00 -1.00000000E+00 -1.00000000E+00
Nuclear ZNuc                               R   N=           3
  8.00000000E+00  1.00000000E+00  1.00000000E+00
Nuclear QMom                               R   N=           3
  0.00000000E+00  0.00000000E+00  0.00000000E+00
Nuclear GFac                               R   N=           3
  0.00000000E+00  2.79284600E+00  2.79284600E+00
MicOpt                                     I   N=           3
          -1          -1          -1
Number of residues                         I                0
Number of secondary structures             I                0
SymInf integers                            I   N=          26
           2           4           1           1           1          -1
          -1           1          -1           1           1           1
          -1           1           0           0           0           0
           0           0           0           0           0           0
           0           0
RotTr to input orientation                 R   N=          12
  2.06109612E-16 -1.00000000E+00 -2.34527640E-16 -5.00000000E-01 -3.06161700E-16
  8.66025404E-01 -8.66025404E-01 -6.12323400E-17 -5.00000000E-01  1.63655083E-01
  0.00000000E+00  9.44863062E-02
Number of contracted shells                I                8
Number of primitive shells                 I               19
Pure/Cartesian d shells                    I                1
Pure/Cartesian f shells                    I                0
Highest angular momentum                   I                2
Largest degree of contraction              I                6
Shell types                                I   N=           8
           0          -1          -1           2           0           0
           0           0
Number of primitives per shell             I   N=           8
           6           3           1           1           3           1
           3           1
Shell to atom map                          I   N=           8
           1           1           1           1           2           2
           3           3
Primitive exponents                        R   N=          19
  5.48467166E+03  8.25234946E+02  1.88046958E+02  5.29645000E+01  1.68975704E+01
  5.79963534E+00  1.55396162E+01  3.59993359E+00  1.01376175E+00  2.70005823E-01
  8.00000000E-01  1.87311370E+01  2.82539436E+00  6.40121692E-01  1.61277759E-01
  1.87311370E+01  2.82539436E+00  6.40121692E-01  1.61277759E-01
Contraction coefficients                   R   N=          19
  1.83107443E-03  1.39501722E-02  6.84450781E-02  2.32714336E-01  4.70192898E-01
  3.58520853E-01 -1.10777550E-01 -1.48026263E-01  1.13076702E+00  1.00000000E+00
  1.00000000E+00  3.34946043E-02  2.34726953E-01  8.13757326E-01  1.00000000E+00
  3.34946043E-02  2.34726953E-01  8.13757326E-01  1.00000000E+00
P(S=P) Contraction coefficients            R   N=          19
  0.00000000E+00  0.00000000E+00  0.00000000E+00  0.00000000E+00  0.00000000E+00
  0.00000000E+00  7.08742682E-02  3.39752839E-01  7.27158577E-01  1.00000000E+00
  0.00000000E+00  0.00000000E+00  0.00000000E+00  0.00000000E+00  0.00000000E+00
  0.00000000E+00  0.00000000E+00  0.00000000E+00  0.00000000E+00
Coordinates of each shell                  R   N=          24
  5.82316821E-33 -5.24504363E-18  1.88972612E-01  5.82316821E-33 -5.24504363E-18
  1.88972612E-01  5.82316821E-33 -5.24504363E-18  1.88972612E-01  5.82316821E-33
 -5.24504363E-18  1.88972612E-01 -2.01720464E-32  1.63655083E+00 -7.55890450E-01
 -2.01720464E-32  1.63655083E+00 -7.55890450E-01 -2.00419674E-16 -1.63655083E+00
 -7.55890450E-01 -2.00419674E-16 -1.63655083E+00 -7.55890450E-01
Num ILSW                                   I              100
ILSW                                       I   N=         100
           0           1           0           0           2           0
           0           0           0           0           0          -1
           5           0           0           0           0           0
           0           0           1           0           0           0
           1           0           0           0           0           0
           0           0      100000           0          -1           0
           0           0           0           0           0           0
           0           0           0           1           0           0
           0 -2000000000           1           0           0           0
           0           0           4          52           0           0
           0           0           0           0           0           0
           0           0           0           0           0           1
           0           0           0           0           0           0
           0           0           0           0           0           0
           0           0           0           0           0           0
           0           0           0           0           0           0
           0           0           0           0
Num RLSW                                   I               52
RLSW                                       R   N=          52
  1.00000000E+00  1.00000000E+00  1.00000000E+00  1.00000000E+00  1.00000000E+00
  0.00000000E+00  0.00000000E+00  1.00000000E+00  0.00000000E+00  0.00000000E+00
  0.00000000E+00  0.00000000E+00  1.00000000E+00  0.00000000E+00  0.00000000E+00
  0.00000000E+00  0.00000000E+00  1.00000000E+00  0.00000000E+00  0.00000000E+00
  0.00000000E+00  0.00000000E+00  1.00000000E+00  0.00000000E+00  0.00000000E+00
  0.00000000E+00  0.00000000E+00  1.00000000E+00  0.00000000E+00  0.00000000E+00
  0.00000000E+00  0.00000000E+00  1.00000000E+00  0.00000000E+00  0.00000000E+00
  0.00000000E+00  0.00000000E+00  0.00000000E+00  1.00000000E+00  1.00000000E+00
  0.00000000E+00  1.00000000E+00  0.00000000E+00  0.00000000E+00  0.00000000E+00
  0.00000000E+00  0.00000000E+00  0.00000000E+00  0.00000000E+00  0.00000000E+00
  0.00000000E+00  0.00000000E+00
MxBond                                     I                2
NBond                                      I   N=           3
           2           1           1
IBond                                      I   N=           6
           2           3           1           0           1           0
RBond                                      R   N=           6
  1.00000000E+00  1.00000000E+00  1.00000000E+00  0.00000000E+00  1.00000000E+00
  0.00000000E+00
Virial Ratio                               R      2.004795666942097E+00
SCF Energy                                 R     -7.599860529295363E+01
Total Energy                               R     -7.599860529295363E+01
RMS Density                                R      5.119564082028680E-09
Job Status                                 I                1
Nuclear derivative order                   I                0
External E-field                           R   N=          35
  0.00000000E+00  0.00000000E+00  0.00000000E+00  0.00000000E+00  0.00000000E+00
  0.00000000E+00  0.00000000E+00  0.00000000E+00  0.00000000E+00  0.00000000E+00
  0.00000000E+00  0.00000000E+00  0.00000000E+00  0.00000000E+00  0.00000000E+00
  0.00000000E+00  0.00000000E+00  0.00000000E+00  0.00000000E+00  0.00000000E+00
  0.00000000E+00  0.00000000E+00  0.00000000E+00  0.00000000E+00  0.00000000E+00
  0.00000000E+00  0.00000000E+00  0.00000000E+00  0.00000000E+00  0.00000000E+00
  0.00000000E+00  0.00000000E+00  0.00000000E+00  0.00000000E+00  0.00000000E+00
IOpCl                                      I                0
IROHF                                      I                0
Alpha Orbital Energies                     R   N=          19
 -2.05577240E+01 -1.30863416E+00 -7.06664175E-01 -5.32228606E-01 -4.87600308E-01
  1.98640072E-01  2.95258687E-01  1.02211329E+00  1.08262885E+00  1.16076224E+00
  1.17339294E+00  1.38004806E+00  1.39160228E+00  2.03429290E+00  2.07227307E+00
  2.09248728E+00  2.62633611E+00  2.82753043E+00  3.97183679E+00
Alpha MO coefficients                      R   N=         361
  9.94654801E-01  2.10332365E-02  0.00000000E+00  0.00000000E+00 -1.21824916E-03
  4.20275150E-03  0.00000000E+00  0.00000000E+00  4.18938613E-04 -3.90124395E-03
 -4.22948183E-03 -4.04688451E-03  0.00000000E+00  0.00000000E+00  0.00000000E+00
  3.44112597E-04 -2.59239915E-04  3.44112597E-04 -2.59239915E-04 -2.12057218E-01
  4.78801959E-01  0.00000000E+00  0.00000000E+00 -6.83238605E-02  4.61103217E-01
  0.00000000E+00  0.00000000E+00 -4.36952098E-02 -1.56646040E-03  3.21434735E-02
  1.31209290E-02  0.00000000E+00  0.00000000E+00  0.00000000E+00  1.19270256E-01
  4.62128045E-03  1.19270256E-01  4.62128045E-03  0.00000000E+00  0.00000000E+00
  0.00000000E+00  4.93807712E-01  0.00000000E+00  0.00000000E+00  0.00000000E+00
  3.06541274E-01  0.00000000E+00  0.00000000E+00  0.00000000E+00  0.00000000E+00
  0.00000000E+00  0.00000000E+00 -4.50304521E-02  2.31286188E-01  1.07605293E-01
 -2.31286188E-01 -1.07605293E-01 -6.21208194E-02  1.39093517E-01  0.00000000E+00
  0.00000000E+00  5.68624623E-01  2.85775514E-01  0.00000000E+00  0.00000000E+00
  4.32530433E-01  1.01108364E-02 -4.38063425E-03 -3.81415946E-02  0.00000000E+00
  0.00000000E+00  0.00000000E+00 -1.29544349E-01 -9.27593283E-02 -1.29544349E-01
 -9.27593283E-02  0.00000000E+00  0.00000000E+00  6.38080177E-01  0.00000000E+00
  0.00000000E+00  0.00000000E+00  5.13349642E-01  0.00000000E+00  0.00000000E+00
  0.00000000E+00  0.00000000E+00  0.00000000E+00  0.00000000E+00 -2.77736636E-02
  0.00000000E+00  0.00000000E+00  0.00000000E+00  0.00000000E+00  0.00000000E+00
 -1.04666159E-01  7.60178736E-02  0.00000000E+00  0.00000000E+00 -2.11060654E-01
  1.34839511E+00  0.00000000E+00  0.00000000E+00 -4.43266948E-01 -6.45310777E-02
 -5.50441291E-02 -4.48856881E-02  0.00000000E+00  0.00000000E+00  0.00000000E+00
 -8.36827910E-02 -1.00658158E+00 -8.36827910E-02 -1.00658158E+00  0.00000000E+00
  0.00000000E+00  0.00000000E+00 -3.34265813E-01  0.00000000E+00  0.00000000E+00
  0.00000000E+00 -8.54354779E-01  0.00000000E+00  0.00000000E+00  0.00000000E+00
  0.00000000E+00  0.00000000E+00  0.00000000E+00  2.15384171E-02  4.30535456E-02
  1.29540150E+00 -4.30535456E-02 -1.29540150E+00  4.75625136E-02 -2.65739879E-01
  0.00000000E+00  0.00000000E+00  1.58602087E-01  2.62459169E-01  0.00000000E+00
  0.00000000E+00  2.42660973E-01 -1.72520599E-01  1.63414243E-01 -1.03868264E-01
  0.00000000E+00  0.00000000E+00  0.00000000E+00  8.59711369E-01 -5.53478842E-01
  8.59711369E-01 -5.53478842E-01  0.00000000E+00  0.00000000E+00  0.00000000E+00
 -2.44878208E-01  0.00000000E+00  0.00000000E+00  0.00000000E+00 -4.76603832E-01
  0.00000000E+00  0.00000000E+00  0.00000000E+00  0.00000000E+00  0.00000000E+00
  0.00000000E+00 -2.28659674E-01  8.60098658E-01 -5.27632993E-01 -8.60098658E-01
  5.27632993E-01 -2.98136032E-02 -7.52288311E-01  0.00000000E+00  0.00000000E+00
 -8.24795246E-01  1.53799450E+00  0.00000000E+00  0.00000000E+00  7.92320155E-01
 -2.56938629E-01 -2.87785862E-01 -2.79772527E-01  0.00000000E+00  0.00000000E+00
  0.00000000E+00 -2.00341364E-02 -1.52167557E-01 -2.00341364E-02 -1.52167557E-01
  0.00000000E+00  0.00000000E+00 -9.63776943E-01  0.00000000E+00  0.00000000E+00
  0.00000000E+00  1.03527170E+00  0.00000000E+00  0.00000000E+00  0.00000000E+00
  0.00000000E+00  0.00000000E+00  0.00000000E+00 -1.23328783E-02  0.00000000E+00
  0.00000000E+00  0.00000000E+00  0.00000000E+00  0.00000000E+00 -7.39286535E-02
 -1.47353743E+00  0.00000000E+00  0.00000000E+00  5.32839003E-01  3.49622395E+00
  0.00000000E+00  0.00000000E+00 -9.54919693E-01 -3.82197683E-01 -6.04534853E-01
 -4.05577036E-01  0.00000000E+00  0.00000000E+00  0.00000000E+00 -1.28421625E-01
 -8.08664085E-01 -1.28421625E-01 -8.08664085E-01  0.00000000E+00  0.00000000E+00
  0.00000000E+00 -1.01823403E+00  0.00000000E+00  0.00000000E+00  0.00000000E+00
  1.65326790E+00  0.00000000E+00  0.00000000E+00  0.00000000E+00  0.00000000E+00
  0.00000000E+00  0.00000000E+00  7.19883348E-02 -4.17754788E-02 -7.95776365E-01
  4.17754788E-02  7.95776365E-01  0.00000000E+00  0.00000000E+00  0.00000000E+00
  0.00000000E+00  0.00000000E+00  0.00000000E+00  0.00000000E+00  0.00000000E+00
  0.00000000E+00  0.00000000E+00  0.00000000E+00  0.00000000E+00  1.00000000E+00
  0.00000000E+00  0.00000000E+00  0.00000000E+00  0.00000000E+00  0.00000000E+00
  0.00000000E+00  5.54618505E-03  5.97154904E-02  0.00000000E+00  0.00000000E+00
 -4.13189924E-03 -1.66003533E-01  0.00000000E+00  0.00000000E+00  8.91410995E-02
 -5.99970656E-01 -3.55393518E-01  1.00483549E+00  0.00000000E+00  0.00000000E+00
  0.00000000E+00  6.47230897E-02  2.06323893E-02  6.47230897E-02  2.06323893E-02
  0.00000000E+00  0.00000000E+00  5.83837683E-03  0.00000000E+00  0.00000000E+00
  0.00000000E+00  2.70379675E-02  0.00000000E+00  0.00000000E+00  0.00000000E+00
  0.00000000E+00  0.00000000E+00  0.00000000E+00  9.99538155E-01  0.00000000E+00
  0.00000000E+00  0.00000000E+00  0.00000000E+00  0.00000000E+00 -4.86172520E-02
 -4.27358543E-01  0.00000000E+00  0.00000000E+00  5.47885108E-02  1.26510935E+00
  0.00000000E+00  0.00000000E+00 -5.21538486E-01 -9.91592766E-01  9.43678599E-01
 -2.67947974E-01  0.00000000E+00  0.00000000E+00  0.00000000E+00 -7.58187753E-01
 -5.64929172E-02 -7.58187753E-01 -5.64929172E-02  0.00000000E+00  0.00000000E+00
  0.00000000E+00  1.01836044E-01  0.00000000E+00  0.00000000E+00  0.00000000E+00
 -9.85792094E-01  0.00000000E+00  0.00000000E+00  0.00000000E+00  0.00000000E+00
  0.00000000E+00  0.00000000E+00  1.19842896E+00  8.92596409E-01  1.75861236E-02
 -8.92596409E-01 -1.75861236E-02 -4.62695711E-01  3.49712149E-01  0.00000000E+00
  0.00000000E+00  9.02973501E-02  3.53976407E+00  0.00000000E+00  0.00000000E+00
 -2.49220174E-01 -1.54578720E+00 -1.51655024E+00 -1.53734567E+00  0.00000000E+00
  0.00000000E+00  0.00000000E+00  1.36632704E-01 -5.31176098E-01  1.36632704E-01
 -5.31176098E-01
Orthonormal basis                          R   N=         361
  3.31205731E-02  1.65349081E-01  0.00000000E+00  0.00000000E+00 -2.12299828E-02
  2.12601322E-01  0.00000000E+00  0.00000000E+00 -4.33692465E-02  1.41641772E-01
  1.62682087E-01  1.48655210E-01  0.00000000E+00  0.00000000E+00  0.00000000E+00
  1.13011631E-01  1.58998968E-01  1.13011631E-01  1.58998968E-01  6.48184695E-02
  1.70192663E-01  0.00000000E+00  0.00000000E+00  4.22679226E-01  1.17607886E-01
  0.00000000E+00  0.00000000E+00  4.92587656E-01  1.44322784E-01  4.30359769E-02
  1.10560515E-01  0.00000000E+00  0.00000000E+00  0.00000000E+00 -1.71659026E-01
 -9.44495753E-02 -1.71659026E-01 -9.44495753E-02  8.69790207E-01  2.44422718E-01
  0.00000000E+00  0.00000000E+00 -2.36947780E-01  1.84529851E-02  0.00000000E+00
  0.00000000E+00 -1.09183653E-01  3.92804121E-02 -1.66376321E-01 -2.92718324E-02
  0.00000000E+00  0.00000000E+00  0.00000000E+00 -1.17775413E-01 -9.57165567E-02
 -1.17775413E-01 -9.57165567E-02 -3.99413385E-01  2.32953410E-01  0.00000000E+00
  0.00000000E+00 -4.68035693E-01  7.61918748E-02  0.00000000E+00  0.00000000E+00
 -9.58857472E-02  5.33477885E-01 -3.27440445E-01  2.46505109E-01  0.00000000E+00
  0.00000000E+00  0.00000000E+00 -3.06900693E-01 -1.41997269E-01 -3.06900693E-01
 -1.41997269E-01 -2.37369911E-16  5.91612119E-16  0.00000000E+00  0.00000000E+00
 -1.87672471E-15  2.93708228E-16  0.00000000E+00  0.00000000E+00  1.02847236E-15
 -6.54653671E-01 -3.27326835E-01  9.81980506E-01  0.00000000E+00  0.00000000E+00
  0.00000000E+00 -3.12628402E-16 -7.65318636E-16 -3.12628402E-16 -7.65318636E-16
 -1.32839743E-01  3.77423967E-01  0.00000000E+00  0.00000000E+00 -5.13984218E-01
 -1.64356953E-02  0.00000000E+00  0.00000000E+00  2.60785653E-01 -3.68305271E-01
  7.26331783E-01 -3.42625278E-03  0.00000000E+00  0.00000000E+00  0.00000000E+00
  6.53915032E-02 -4.22578075E-01  6.53915032E-02 -4.22578075E-01  1.60780296E-01
 -7.07432448E-01  0.00000000E+00  0.00000000E+00 -7.64466870E-01  1.89949289E-01
  0.00000000E+00  0.00000000E+00  9.41033839E-01  1.18750729E-02 -4.76470500E-02
 -7.96563477E-03  0.00000000E+00  0.00000000E+00  0.00000000E+00 -4.63187044E-02
  3.57139308E-01 -4.63187044E-02  3.57139308E-01  2.49101075E-01 -7.21460894E-01
  0.00000000E+00  0.00000000E+00  7.82307270E-02 -2.84386632E-02  0.00000000E+00
  0.00000000E+00  7.82760542E-02  7.99911071E-01 -9.37586096E-02  5.02021178E-01
  0.00000000E+00  0.00000000E+00  0.00000000E+00  7.58511388E-01 -6.98032910E-01
  7.58511388E-01 -6.98032910E-01  2.71702443E-01 -1.08915814E+00  0.00000000E+00
  0.00000000E+00  1.81627161E-01  1.51512075E-01  0.00000000E+00  0.00000000E+00
 -7.24966814E-01  2.21166283E-01  1.20691654E+00  5.49749702E-01  0.00000000E+00
  0.00000000E+00  0.00000000E+00 -8.03427299E-01 -5.19016488E-02 -8.03427299E-01
 -5.19016488E-02 -4.16514009E-01 -9.22600025E-01  0.00000000E+00  0.00000000E+00
  1.76278015E-01  5.55005054E+00  0.00000000E+00  0.00000000E+00 -7.58398000E-01
 -1.54875840E+00 -1.23702097E+00 -1.44484592E+00  0.00000000E+00  0.00000000E+00
  0.00000000E+00 -1.18993558E-01 -1.19642721E+00 -1.18993558E-01 -1.19642721E+00
  0.00000000E+00  0.00000000E+00  0.00000000E+00  0.00000000E+00  0.00000000E+00
  0.00000000E+00  0.00000000E+00  0.00000000E+00  0.00000000E+00  0.00000000E+00
  0.00000000E+00  0.00000000E+00  1.00000000E+00  0.00000000E+00  0.00000000E+00
  0.00000000E+00  0.00000000E+00  0.00000000E+00  0.00000000E+00  0.00000000E+00
  0.00000000E+00  5.77057836E-01  0.00000000E+00  0.00000000E+00  0.00000000E+00
  5.77057836E-01  0.00000000E+00  0.00000000E+00  0.00000000E+00  0.00000000E+00
  0.00000000E+00  0.00000000E+00  0.00000000E+00  0.00000000E+00  0.00000000E+00
  0.00000000E+00  0.00000000E+00  0.00000000E+00  0.00000000E+00  0.00000000E+00
  0.00000000E+00  0.00000000E+00  0.00000000E+00  0.00000000E+00  0.00000000E+00
  0.00000000E+00  0.00000000E+00  0.00000000E+00  0.00000000E+00  0.00000000E+00
  0.00000000E+00  1.00000000E+00  0.00000000E+00  0.00000000E+00  0.00000000E+00
  0.00000000E+00  0.00000000E+00  0.00000000E+00  0.00000000E+00  1.00152416E+00
  0.00000000E+00  0.00000000E+00  0.00000000E+00 -1.00152416E+00  0.00000000E+00
  0.00000000E+00  0.00000000E+00  0.00000000E+00  0.00000000E+00  0.00000000E+00
  0.00000000E+00  0.00000000E+00  0.00000000E+00  0.00000000E+00  0.00000000E+00
  0.00000000E+00  0.00000000E+00  0.00000000E+00  0.00000000E+00  2.50679706E-01
  0.00000000E+00  0.00000000E+00  0.00000000E+00  3.78566882E-01  0.00000000E+00
  0.00000000E+00  0.00000000E+00  0.00000000E+00  0.00000000E+00  0.00000000E+00
 -1.16969286E-01  2.56972526E-01  1.78454260E-01 -2.56972526E-01 -1.78454260E-01
  0.00000000E+00  0.00000000E+00  0.00000000E+00  3.56822115E-01  0.00000000E+00
  0.00000000E+00  0.00000000E+00  2.26846812E-01  0.00000000E+00  0.00000000E+00
  0.00000000E+00  0.00000000E+00  0.00000000E+00  0.00000000E+00  8.11172510E-01
 -1.71102321E-01  2.09989589E-02  1.71102321E-01 -2.09989589E-02  0.00000000E+00
  0.00000000E+00  0.00000000E+00  9.71348112E-01  0.00000000E+00  0.00000000E+00
  0.00000000E+00 -2.75991234E-01  0.00000000E+00  0.00000000E+00  0.00000000E+00
  0.00000000E+00  0.00000000E+00  0.00000000E+00 -3.93806221E-01 -1.42128706E-01
 -3.13898378E-01  1.42128706E-01  3.13898378E-01  0.00000000E+00  0.00000000E+00
  0.00000000E+00 -6.87759686E-02  0.00000000E+00  0.00000000E+00  0.00000000E+00
 -4.98434642E-01  0.00000000E+00  0.00000000E+00  0.00000000E+00  0.00000000E+00
  0.00000000E+00  0.00000000E+00  6.95372617E-01  1.14299178E+00 -8.41017029E-01
 -1.14299178E+00  8.41017029E-01  0.00000000E+00  0.00000000E+00  0.00000000E+00
 -5.69479159E-01  0.00000000E+00  0.00000000E+00  0.00000000E+00  2.05833453E+00
  0.00000000E+00  0.00000000E+00  0.00000000E+00  0.00000000E+00  0.00000000E+00
  0.00000000E+00 -4.31140470E-01 -4.14304836E-01 -1.32796126E+00  4.14304836E-01
  1.32796126E+00
Total SCF Density                          R   N=         190
  2.07633087E+00 -1.78506410E-01  4.98081439E-01  0.00000000E+00  0.00000000E+00
  8.14292624E-01  1.22383198E-18 -2.57309600E-18 -6.16297582E-33  4.87692114E-01
 -4.40931942E-02  9.27055535E-02  1.61718258E-32 -4.67168188E-18  6.56007192E-01
 -2.22705175E-01  5.21230085E-01  6.45828207E-33 -7.27137918E-18  2.61979044E-01
  5.88602969E-01  0.00000000E+00  0.00000000E+00  6.55116461E-01 -2.00296714E-32
  4.03746691E-33  0.00000000E+00  5.27055711E-01  9.54045785E-19 -2.17879264E-18
 -3.08148791E-33  3.02744891E-01 -5.41566371E-18 -5.74320402E-18 -6.16297582E-33
  1.87935105E-01 -3.43731219E-02  7.84992776E-02  1.22733134E-32 -5.41566371E-18
  4.97864739E-01  2.06920732E-01  9.31802612E-33 -5.27491772E-18  3.77984045E-01
 -8.35261047E-03  1.14854341E-03 -1.22441320E-33 -3.25353625E-19  1.17220997E-02
  4.30146718E-03 -9.98640279E-34 -2.46472670E-19  8.88011378E-03  2.39805031E-04
 -2.15020028E-02  2.93841611E-02 -2.30837964E-34  2.39788733E-18 -9.36390027E-03
  2.71036111E-02 -1.62754101E-34  1.51044407E-18 -6.60209068E-03 -1.56286229E-04
  2.14056272E-03 -8.87650742E-03  1.78391781E-03 -1.49161603E-33 -8.84556624E-19
 -4.51595845E-02 -9.73367856E-03 -1.14612317E-33 -3.79489693E-19 -3.41448352E-02
 -7.80817912E-04  1.21190567E-03  3.28663459E-03  3.89177660E-34 -2.22387234E-34
  9.83758862E-19 -1.09633840E-33 -3.33580852E-34 -2.22387234E-34  7.91455805E-19
 -6.80574568E-34 -2.22387234E-34 -5.21220081E-36 -1.38992021E-35  1.38992021E-35
  2.93020765E-35 -3.12115254E-34  5.89537146E-35 -3.54436484E-02  1.00074255E-33
 -1.42051243E-33 -2.46463745E-34 -2.85152006E-02  8.54800932E-34 -1.08449618E-33
  4.53531193E-35  3.33853868E-35  1.04467557E-34 -4.28199914E-20  1.54275278E-03
 -4.04639274E-19  8.84570633E-19  1.00074255E-33 -4.44727691E-02 -8.71378851E-20
  1.18061223E-18  8.54800932E-34 -2.76073843E-02  1.16468990E-19  2.00158521E-20
 -1.65200692E-19  1.28469802E-19  9.99753804E-35 -6.41976648E-35  4.05548323E-03
 -3.38048886E-02  7.81905814E-02 -4.62223187E-33  2.28421806E-01 -1.63623060E-01
  3.59534837E-02 -2.31111593E-33  1.41797525E-01 -1.22486536E-01 -2.99595264E-03
  8.79958258E-03  1.30091440E-02 -4.44774469E-34  5.55968086E-34 -2.08298432E-02
  1.69001102E-01  9.04891075E-03 -2.13899915E-02 -1.92592994E-33  1.06272647E-01
 -1.06121332E-01 -4.87570940E-02 -1.15555797E-33  6.59709272E-02 -8.06465378E-02
 -1.88820418E-03  1.11197029E-03  7.19934661E-03 -1.94588830E-34  2.22387234E-34
 -9.69102998E-03  7.49103138E-02  4.04092310E-02 -3.38048886E-02  7.81905814E-02
  4.62223187E-33 -2.28421806E-01 -1.63623060E-01  3.59534837E-02  2.31111593E-33
 -1.41797525E-01 -1.22486536E-01 -2.99595264E-03  8.79958258E-03  1.30091440E-02
  5.00371277E-34  3.33580852E-34  2.08298432E-02 -4.49721000E-02 -2.46401582E-02
  1.69001102E-01  9.04891075E-03 -2.13899915E-02  1.92592994E-33 -1.06272647E-01
 -1.06121332E-01 -4.87570940E-02  1.15555797E-33 -6.59709272E-02 -8.06465378E-02
 -1.88820418E-03  1.11197029E-03  7.19934661E-03  2.91883245E-34  1.11193617E-34
  9.69102998E-03 -2.46401582E-02 -5.90636529E-03  7.49103138E-02  4.04092310E-02
Mulliken Charges                           R   N=           3
 -8.96801034E-01  4.48400517E-01  4.48400517E-01
ONIOM Charges                              I   N=          16
           0           0           0           0           0           0
           0           0           0           0           0           0
           0           0           0           0
ONIOM Multiplicities                       I   N=          16
           1           0           0           0           0           0
           0           0           0           0           0           0
           0           0           0           0
Atom Layers                                I   N=           3
           1           1           1
Atom Modifiers                             I   N=           3
           0           0           0
Force Field                                I                0
Atom Modified Types                        C   N=           3
                                    
Int Atom Modified Types                    I   N=           3
           0           0           0
Link Atoms                                 I   N=           3
           0           0           0
Atom Modified MM Charges                   R   N=           3
  0.00000000E+00  0.00000000E+00  0.00000000E+00
Link Distances                             R   N=          12
  0.00000000E+00  0.00000000E+00  0.00000000E+00  0.00000000E+00  0.00000000E+00
  0.00000000E+00  0.00000000E+00  0.00000000E+00  0.00000000E+00  0.00000000E+00
  0.00000000E+00  0.00000000E+00
Cartesian Gradient                         R   N=           9
  0.00000000E+00  0.00000000E+00  0.00000000E+00  0.00000000E+00  0.00000000E+00
  0.00000000E+00  0.00000000E+00  0.00000000E+00  0.00000000E+00
Nonadiabatic coupling                      R   N=           9
  0.00000000E+00  0.00000000E+00  0.00000000E+00  0.00000000E+00  0.00000000E+00
  0.00000000E+00  0.00000000E+00  0.00000000E+00  0.00000000E+00
Dipole Moment                              R   N=           3
 -8.56276586E-17  2.22044605E-16 -7.72856433E-01
Quadrupole Moment                          R   N=           6
 -1.22350659E+00  1.77708660E+00 -5.53580007E-01  1.48956507E-16  6.20746890E-17
 -1.11022302E-16
QEq coupling tensors                       R   N=          18
  1.89236467E+00  3.91981821E-17 -1.96141128E+00  3.45711315E-17 -2.33146835E-15
  6.90466070E-02  2.07426604E-01 -1.09865651E-18 -2.22258612E-01  3.06818165E-19
  2.38604741E-01  1.48320083E-02  2.07426604E-01 -8.36742929E-17 -2.22258612E-01
 -5.15758483E-17 -2.38604741E-01  1.48320083E-02
ClPar MaxAn                                I              200
ClPar NIntPar                              I                4
ClPar NRealPar                             I               16
ClPar NBits                                I               30
ClPar LenBitVec                            I                1
ClPar Read BitMap                          I   N=         200
           0           0           0           0           0           0
           0           0           0           0           0           0
           0           0           0           0           0           0
           0           0           0           0           0           0
           0           0           0           0           0           0
           0           0           0           0           0           0
           0           0           0           0           0           0
           0           0           0           0           0           0
           0           0           0           0           0           0
           0           0           0           0           0           0
           0           0           0           0           0           0
           0           0           0           0           0           0
           0           0           0           0           0           0
           0           0           0           0           0           0
           0           0           0           0           0           0
           0           0           0           0           0           0
           0           0           0           0           0           0
           0           0           0           0           0           0
           0           0           0           0           0           0
           0           0           0           0           0           0
           0           0           0           0           0           0