[Molden Format]
[Title]
 Molden file created by orca_2mkl for BaseName=water

[Atoms] AU
O    1   8          0.0000000000         0.0000000000         0.1182968560 
H    2   1         -1.4966630981         0.0000000000        -0.9397608064 
H    3   1          1.4966630981         0.0000000000        -0.9397608064 
[GTO]
  1 0
s   5 1.0 
     2266.1767785000        -1.2615859742
      340.8701019100        -2.2748500410
       77.3631351670        -3.3479623295
       21.4796449400        -3.3299980531
        6.6589433124        -1.3203828288
s   1 1.0 
        0.8097597567         0.6083832301
s   1 1.0 
        0.2553077223         0.2559811911
p   3 1.0 
       17.7215043170         3.2460107647
        3.8635505440         2.5734959178
        1.0480920883         1.1208372892
p   1 1.0 
        0.2764154441         0.2856886381
d   1 1.0 
        1.2000000000         3.9222679946

  2 0
s   3 1.0 
       13.0107010000         0.1634903809
        1.9622572000         0.2773515510
        0.4445379600         0.3157501452
s   1 1.0 
        0.1219496200         0.1470772262
p   1 1.0 
        0.8000000000         1.0784563492

  3 0
s   3 1.0 
       13.0107010000         0.1634903809
        1.9622572000         0.2773515510
        0.4445379600         0.3157501452
s   1 1.0 
        0.1219496200         0.1470772262
p   1 1.0 
        0.8000000000         1.0784563492

[5D]
[7F]
[9G]
[MO]
 Sym=     1a
 Ene= -2.05448523792304E+01
 Spin= Alpha
 Occup= 2.000000
  1       0.990350427016
  2      -0.033188065118
  3       0.010544294988
  4       0.000000000000
  5      -0.000000000000
  6       0.002605905532
  7       0.000000000000
  8       0.000000000000
  9      -0.000254451143
 10       0.000012979242
 11      -0.000000000000
 12      -0.000000000000
 13      -0.000897809342
 14       0.000000000000
 15       0.001653338649
 16      -0.001801060442
 17       0.001949790531
 18       0.000000000000
 19       0.001409291830
 20       0.001653338649
 21      -0.001801060442
 22      -0.001949790531
 23      -0.000000000000
 24       0.001409291830
 Sym=     1a
 Ene= -1.30835731521612E+00
 Spin= Alpha
 Occup= 2.000000
  1      -0.279553963969
  2      -0.553001321431
  3      -0.301234250080
  4       0.000000000000
  5       0.000000000000
  6       0.078241757849
  7       0.000000000000
  8       0.000000000000
  9      -0.001394397638
 10      -0.000992412584
 11      -0.000000000000
 12       0.000000000000
 13      -0.004273300297
 14       0.000000000000
 15      -0.186549843397
 16      -0.006388888616
 17      -0.032184648830
 18      -0.000000000000
 19      -0.015206343601
 20      -0.186549843397
 21      -0.006388888616
 22       0.032184648830
 23      -0.000000000000
 24      -0.015206343601
 Sym=     1a
 Ene= -7.05596162100024E-01
 Spin= Alpha
 Occup= 2.000000
  1       0.000000000000
  2       0.000000000000
  3       0.000000000000
  4       0.486922782215
  5      -0.000000000000
  6       0.000000000000
  7       0.221813781415
  8      -0.000000000000
  9      -0.000000000000
 10      -0.000000000000
 11      -0.024853434108
 12      -0.000000000000
 13       0.000000000000
 14       0.000000000000
 15      -0.327322709917
 16      -0.083044481427
 17      -0.023897339699
 18      -0.000000000000
 19      -0.029201008088
 20       0.327322709917
 21       0.083044481427
 22      -0.023897339699
 23       0.000000000000
 24       0.029201008088
 Sym=     1a
 Ene= -5.55949290948985E-01
 Spin= Alpha
 Occup= 2.000000
  1       0.091206076394
  2       0.190163803774
  3       0.313328727777
  4      -0.000000000000
  5       0.000000000000
  6       0.552512211233
  7      -0.000000000000
  8       0.000000000000
  9       0.376911207620
 10      -0.017313193152
 11       0.000000000000
 12      -0.000000000000
 13      -0.004051711769
 14      -0.000000000000
 15      -0.194581824260
 16      -0.054680791128
 17      -0.028947081339
 18       0.000000000000
 19       0.008419271503
 20      -0.194581824260
 21      -0.054680791128
 22       0.028947081339
 23       0.000000000000
 24       0.008419271503
 Sym=     1a
 Ene= -4.95137421209368E-01
 Spin= Alpha
 Occup= 2.000000
  1      -0.000000000000
  2      -0.000000000000
  3      -0.000000000000
  4      -0.000000000000
  5       0.632188553290
  6      -0.000000000000
  7       0.000000000000
  8       0.498664211519
  9      -0.000000000000
 10       0.000000000000
 11      -0.000000000000
 12      -0.017717181693
 13      -0.000000000000
 14      -0.000000000000
 15       0.000000000000
 16       0.000000000000
 17      -0.000000000000
 18       0.028265041217
 19       0.000000000000
 20       0.000000000000
 21       0.000000000000
 22      -0.000000000000
 23       0.028265041217
 24      -0.000000000000
 Sym=     1a
 Ene= 1.74993550143474E-01
 Spin= Alpha
 Occup= 0.000000
  1       0.089178875536
  2       0.092747973119
  3       1.099851711877
  4       0.000000000000
  5       0.000000000000
  6      -0.185875584130
  7       0.000000000000
  8       0.000000000000
  9      -0.358470351948
 10       0.006552723183
 11      -0.000000000000
 12      -0.000000000000
 13       0.009401588819
 14      -0.000000000000
 15      -0.074475241143
 16      -0.897140664592
 17      -0.015089770642
 18       0.000000000000
 19      -0.011173181039
 20      -0.074475241143
 21      -0.897140664592
 22       0.015089770642
 23       0.000000000000
 24      -0.011173181039
 Sym=     1a
 Ene= 2.53029599861737E-01
 Spin= Alpha
 Occup= 0.000000
  1      -0.000000000000
  2       0.000000000000
  3      -0.000000000000
  4       0.283806551804
  5       0.000000000000
  6       0.000000000000
  7       0.663562503782
  8       0.000000000000
  9       0.000000000000
 10      -0.000000000000
 11      -0.018459089658
 12       0.000000000000
 13      -0.000000000000
 14       0.000000000000
 15       0.024424643286
 16       1.386523821247
 17       0.015154445358
 18       0.000000000000
 19       0.011081998872
 20      -0.024424643286
 21      -1.386523821247
 22       0.015154445358
 23      -0.000000000000
 24      -0.011081998872
 Sym=     1a
 Ene= 8.04602871590903E-01
 Spin= Alpha
 Occup= 0.000000
  1       0.000000000000
  2       0.000000000000
  3      -0.000000000000
  4      -0.291368106987
  5      -0.000000000000
  6      -0.000000000000
  7      -0.496185543205
  8      -0.000000000000
  9       0.000000000000
 10      -0.000000000000
 11      -0.107660274418
 12      -0.000000000000
 13      -0.000000000000
 14      -0.000000000000
 15      -0.969462890836
 16       0.663030740474
 17       0.054692971178
 18      -0.000000000000
 19       0.133234519405
 20       0.969462890836
 21      -0.663030740474
 22       0.054692971178
 23       0.000000000000
 24      -0.133234519405
 Sym=     1a
 Ene= 8.33964573606422E-01
 Spin= Alpha
 Occup= 0.000000
  1      -0.109538644025
  2      -0.369619131632
  3       0.297533301910
  4      -0.000000000000
  5       0.000000000000
  6       0.290234487328
  7      -0.000000000000
  8      -0.000000000000
  9       0.111792410705
 10      -0.011017482942
 11      -0.000000000000
 12       0.000000000000
 13       0.104431507247
 14       0.000000000000
 15       0.868410012882
 16      -0.562646486498
 17      -0.224532165100
 18      -0.000000000000
 19      -0.028732941595
 20       0.868410012882
 21      -0.562646486498
 22       0.224532165100
 23       0.000000000000
 24      -0.028732941595
 Sym=     1a
 Ene= 1.18530558245099E+00
 Spin= Alpha
 Occup= 0.000000
  1       0.108754424572
  2       0.451213022897
  3       0.115698898272
  4       0.000000000000
  5       0.000000000000
  6       0.824347082930
  7      -0.000000000000
  8      -0.000000000000
  9      -1.179145459798
 10       0.005561329413
 11       0.000000000000
 12       0.000000000000
 13      -0.000419197803
 14       0.000000000000
 15      -0.350647504920
 16      -0.067295349620
 17      -0.085045923917
 18       0.000000000000
 19      -0.150792175908
 20      -0.350647504920
 21      -0.067295349620
 22       0.085045923917
 23      -0.000000000000
 24      -0.150792175908
 Sym=     1a
 Ene= 1.20341020259970E+00
 Spin= Alpha
 Occup= 0.000000
  1       0.000000000000
  2       0.000000000000
  3      -0.000000000000
  4       0.000000000000
  5      -0.968094021971
  6       0.000000000000
  7      -0.000000000000
  8       1.027287690504
  9      -0.000000000000
 10       0.000000000000
 11       0.000000000000
 12       0.003593173281
 13       0.000000000000
 14       0.000000000000
 15      -0.000000000000
 16      -0.000000000000
 17      -0.000000000000
 18       0.007769254076
 19      -0.000000000000
 20      -0.000000000000
 21      -0.000000000000
 22       0.000000000000
 23       0.007769254076
 24      -0.000000000000
 Sym=     1a
 Ene= 1.26597108707272E+00
 Spin= Alpha
 Occup= 0.000000
  1      -0.000000000000
  2      -0.000000000000
  3       0.000000000000
  4      -0.753750617400
  5      -0.000000000000
  6       0.000000000000
  7       1.744534480203
  8       0.000000000000
  9      -0.000000000000
 10       0.000000000000
 11      -0.037339423938
 12       0.000000000000
 13      -0.000000000000
 14       0.000000000000
 15       0.367288935674
 16       0.764035128448
 17       0.287735219962
 18       0.000000000000
 19       0.135840262275
 20      -0.367288935674
 21      -0.764035128448
 22       0.287735219962
 23      -0.000000000000
 24      -0.135840262275
 Sym=     1a
 Ene= 1.33204046300741E+00
 Spin= Alpha
 Occup= 0.000000
  1       0.260735560292
  2       1.611716790560
  3      -2.830307956927
  4      -0.000000000000
  5       0.000000000000
  6      -0.054796998051
  7       0.000000000000
  8      -0.000000000000
  9       0.539277286580
 10      -0.035824975439
 11       0.000000000000
 12       0.000000000000
 13       0.031263182776
 14      -0.000000000000
 15       0.482279480417
 16       0.524224642777
 17       0.036916023183
 18       0.000000000000
 19       0.297539926439
 20       0.482279480417
 21       0.524224642777
 22      -0.036916023182
 23      -0.000000000000
 24       0.297539926439
 Sym=     1a
 Ene= 1.57982683774461E+00
 Spin= Alpha
 Occup= 0.000000
  1      -0.000000000000
  2      -0.000000000000
  3       0.000000000000
  4       0.000000000000
  5      -0.000000000000
  6       0.000000000000
  7      -0.000000000000
  8       0.000000000000
  9      -0.000000000000
 10      -0.000000000000
 11       0.000000000000
 12      -0.000000000000
 13      -0.000000000000
 14      -0.165008003384
 15      -0.000000000000
 16      -0.000000000000
 17       0.000000000000
 18       0.666383325836
 19       0.000000000000
 20      -0.000000000000
 21      -0.000000000000
 22      -0.000000000000
 23      -0.666383325836
 24       0.000000000000
 Sym=     1a
 Ene= 1.72808691062481E+00
 Spin= Alpha
 Occup= 0.000000
  1      -0.082805861450
  2      -0.666745632988
  3       1.491504465231
  4       0.000000000000
  5       0.000000000000
  6       0.103673661033
  7      -0.000000000000
  8      -0.000000000000
  9      -1.084323425164
 10      -0.198250078426
 11      -0.000000000000
 12      -0.000000000000
 13      -0.026679030673
 14       0.000000000000
 15      -0.658254485900
 16      -0.153858914252
 17      -0.406786576758
 18       0.000000000000
 19       0.508005813376
 20      -0.658254485900
 21      -0.153858914252
 22       0.406786576758
 23       0.000000000000
 24       0.508005813376
 Sym=     1a
 Ene= 1.83201034218075E+00
 Spin= Alpha
 Occup= 0.000000
  1       0.000000000000
  2       0.000000000000
  3      -0.000000000000
  4      -0.000000000000
  5      -0.012260497367
  6       0.000000000000
  7       0.000000000000
  8      -0.566748528738
  9       0.000000000000
 10       0.000000000000
 11       0.000000000000
 12      -0.197613975657
 13      -0.000000000000
 14      -0.000000000000
 15       0.000000000000
 16       0.000000000000
 17       0.000000000000
 18       0.744630140053
 19      -0.000000000000
 20       0.000000000000
 21       0.000000000000
 22      -0.000000000000
 23       0.744630140053
 24      -0.000000000000
 Sym=     1a
 Ene= 2.01421695483804E+00
 Spin= Alpha
 Occup= 0.000000
  1       0.000000000000
  2       0.000000000000
  3      -0.000000000000
  4      -0.099336022716
  5       0.000000000000
  6      -0.000000000000
  7       0.899272635749
  8       0.000000000000
  9       0.000000000000
 10       0.000000000000
 11       0.015381892749
 12       0.000000000000
 13       0.000000000000
 14      -0.000000000000
 15       0.393550053567
 16       0.089350828169
 17      -0.455969958844
 18      -0.000000000000
 19       0.647407242044
 20      -0.393550053566
 21      -0.089350828169
 22      -0.455969958844
 23       0.000000000000
 24      -0.647407242044
 Sym=     1a
 Ene= 2.54904276034226E+00
 Spin= Alpha
 Occup= 0.000000
  1       0.000000000000
  2       0.000000000000
  3       0.000000000000
  4       0.798103141224
  5       0.000000000000
  6      -0.000000000000
  7       0.174643835315
  8      -0.000000000000
  9      -0.000000000000
 10       0.000000000000
 11       0.169340943393
 12       0.000000000000
 13      -0.000000000000
 14      -0.000000000000
 15       0.247389107434
 16       0.291067452012
 17       0.648997850578
 18       0.000000000000
 19       0.557302352512
 20      -0.247389107434
 21      -0.291067452012
 22       0.648997850578
 23       0.000000000000
 24      -0.557302352512
 Sym=     1a
 Ene= 2.57078029911117E+00
 Spin= Alpha
 Occup= 0.000000
  1       0.153879005362
  2       0.746727546946
  3       0.666095565794
  4      -0.000000000000
  5      -0.000000000000
  6      -0.575997112434
  7      -0.000000000000
  8       0.000000000000
  9      -0.211826075374
 10      -0.105861895309
 11      -0.000000000000
 12      -0.000000000000
 13      -0.271971329937
 14      -0.000000000000
 15      -0.418936651705
 16      -0.186372949721
 17      -0.750759612424
 18       0.000000000000
 19      -0.438828758730
 20      -0.418936651705
 21      -0.186372949721
 22       0.750759612424
 23       0.000000000000
 24      -0.438828758730
 Sym=     1a
 Ene= 3.28794400377091E+00
 Spin= Alpha
 Occup= 0.000000
  1       0.000000000000
  2      -0.000000000000
  3      -0.000000000000
  4       0.000000000000
  5      -0.014285893525
  6       0.000000000000
  7       0.000000000000
  8       0.278608881090
  9      -0.000000000000
 10       0.000000000000
 11       0.000000000000
 12      -1.023508180691
 13       0.000000000000
 14      -0.000000000000
 15       0.000000000000
 16      -0.000000000000
 17      -0.000000000000
 18      -0.386015711269
 19       0.000000000000
 20      -0.000000000000
 21      -0.000000000000
 22       0.000000000000
 23      -0.386015711269
 24       0.000000000000
 Sym=     1a
 Ene= 3.39243485795283E+00
 Spin= Alpha
 Occup= 0.000000
  1       0.000000000000
  2       0.000000000000
  3      -0.000000000000
  4       0.000000000000
  5      -0.000000000000
  6      -0.000000000000
  7       0.000000000000
  8       0.000000000000
  9       0.000000000000
 10      -0.000000000000
 11      -0.000000000000
 12      -0.000000000000
 13      -0.000000000000
 14       1.057489748338
 15       0.000000000000
 16       0.000000000000
 17       0.000000000000
 18       0.380848685122
 19      -0.000000000000
 20       0.000000000000
 21       0.000000000000
 22      -0.000000000000
 23      -0.380848685122
 24      -0.000000000000
 Sym=     1a
 Ene= 3.51584567584896E+00
 Spin= Alpha
 Occup= 0.000000
  1      -0.011933113530
  2       0.045553415879
  3      -0.672476480874
  4      -0.000000000000
  5      -0.000000000000
  6       0.062809788078
  7      -0.000000000000
  8       0.000000000000
  9       0.583081464547
 10      -1.058225120786
 11       0.000000000000
 12      -0.000000000000
 13      -0.014185634833
 14      -0.000000000000
 15       0.384759975210
 16       0.083189078486
 17       0.428308676354
 18      -0.000000000000
 19      -0.276139261771
 20       0.384759975210
 21       0.083189078486
 22      -0.428308676354
 23       0.000000000000
 24      -0.276139261771
 Sym=     1a
 Ene= 3.93528703415515E+00
 Spin= Alpha
 Occup= 0.000000
  1      -0.078568321409
  2      -0.170954021780
  3      -1.763177748771
  4      -0.000000000000
  5      -0.000000000000
  6       0.363572973405
  7      -0.000000000000
  8       0.000000000000
  9       0.749783546047
 10       0.078080361138
 11       0.000000000000
 12       0.000000000000
 13      -1.177141494219
 14      -0.000000000000
 15       1.072536976129
 16       0.211988292249
 17       0.596816783268
 18      -0.000000000000
 19       0.502142665763
 20       1.072536976130
 21       0.211988292249
 22      -0.596816783268
 23       0.000000000000
 24       0.502142665763
 Sym=     1a
 Ene= 4.18753845414919E+00
 Spin= Alpha
 Occup= 0.000000
  1       0.000000000000
  2      -0.000000000000
  3       0.000000000000
  4      -0.472444815869
  5      -0.000000000000
  6      -0.000000000000
  7      -1.115465973559
  8       0.000000000000
  9      -0.000000000000
 10       0.000000000000
 11       1.316680107298
 12       0.000000000000
 13       0.000000000000
 14       0.000000000000
 15      -1.031705673302
 16      -0.249294686970
 17      -0.625158090566
 18       0.000000000000
 19      -0.447747809644
 20       1.031705673302
 21       0.249294686970
 22      -0.625158090566
 23      -0.000000000000
 24       0.447747809644
